ITEM: TIMESTEP
1
ITEM: NUMBER OF ATOMS
20000
ITEM: BOX BOUNDS pp pp pp
-14.32761 14.32761
-14.32761 14.32761
-14.32761 14.32761
ITEM: ATOMS id mol type x y z
1 1 2 0.445 4.64 9.899
2 1 1 0.329 4.489 8.969
3 1 1 1.267 4.381 9.068
4 1 1 1.728 4.577 8.264
5 1 1 1.036 5.1 7.881
6 1 1 1.796 5.483 7.463
7 1 1 2.501 5.425 8.086
8 1 1 2.872 4.932 8.799
9 1 1 3.35 4.62 9.557
10 1 1 3.66 5.188 10.258
11 1 1 2.736 5.358 10.22
12 1 1 2.094 5.325 9.522
13 1 1 2.212 4.438 9.826
14 1 1 1.928 3.588 9.505
15 1 1 2.622 3.835 8.935
16 1 1 3.388 3.291 8.992
17 1 1 2.773 2.672 9.391
18 1 1 2.436 2.783 8.515
19 1 1 2.23 2.709 7.595
20 1 1 2.273 3.604 7.299
21 1 1 2.577 4.491 7.469
22 1 1 2.795 5.305 7.012
23 1 1 3.536 4.755 6.798
24 1 1 4.197 4.16 6.466
25 1 1 5.06 4.17 6.051
26 1 1 5.359 4.637 5.275
27 1 1 5.648 4.984 4.429
28 1 1 6.51 5.327 4.228
29 1 1 6.95 6.04 4.668
30 1 1 6.758 6.668 5.365
31 1 1 6.402 6.234 6.153
32 1 1 5.542 5.896 5.921
33 1 1 4.811 5.829 5.333
34 1 1 3.908 5.712 5.076
35 1 1 3.247 5.058 5.263
36 1 1 2.823 4.534 5.932
37 1 1 2.121 3.956 6.202
38 1 1 2.454 3.071 6.351
39 1 1 3.164 3.647 6.571
40 1 1 3.659 3.655 7.382
41 1 1 4.084 2.884 7.027
42 1 1 4.6 3.139 6.271
43 1 1 5.498 3.148 5.972
44 1 1 6.406 3.366 6.096
45 1 1 6.359 3.296 5.15
46 1 1 5.998 2.897 4.367
47 1 1 5.61 3.061 3.52
48 1 1 4.811 3.256 3.049
49 1 1 4.023 3.306 2.518
50 1 1 3.201 3.563 2.923
51 1 1 2.902 3.908 3.757
52 1 1 2.432 3.936 4.574
53 1 1 2.791 3.605 5.383
54 1 1 3.701 3.608 5.668
55 1 1 4.561 3.577 5.254
56 1 1 5.376 3.662 4.765
57 1 1 6.152 4.006 4.336
58 1 1 6.167 4.155 3.402
59 1 1 5.271 4.077 3.71
60 1 1 4.554 4.616 4.029
61 1 1 4.221 3.76 3.78
62 1 1 3.84 2.928 3.506
63 1 1 2.934 2.76 3.753
64 1 1 2.78 2.714 4.693
65 1 1 2.963 2.168 5.448
66 1 1 3.831 2.292 5.828
67 1 1 4.168 2.127 4.982
68 1 1 4.713 1.839 4.292
69 1 1 4.51 0.98 3.953
70 1 1 4.258 1.018 4.86
71 1 1 3.746 1.192 5.611
72 1 1 4.424 1.123 6.242
73 1 1 5.07 0.785 6.829
74 1 1 5.09 0.183 7.576
75 1 1 4.177 -0.024 7.345
76 1 1 3.884 0.715 7.89
77 1 1 2.937 0.864 7.829
78 1 1 2.115 1.297 8.037
79 1 1 2.335 1.482 7.098
80 1 1 2.931 2.037 6.605
81 1 1 3.225 2.156 7.469
82 1 1 3.74 1.728 8.146
83 1 1 4.363 1.392 8.822
84 1 1 3.814 1.818 9.498
85 1 1 3.625 1.729 10.347
86 1 1 4.159 0.983 10.632
87 1 1 5.022 0.914 10.378
88 1 1 4.803 0.569 9.527
89 1 1 5.664 0.391 9.146
90 1 1 5.506 0.848 8.346
91 1 1 5.836 1.095 7.51
92 1 1 6.622 1.631 7.364
93 1 1 7.448 1.536 6.905
94 1 1 7.983 1.779 6.121
95 1 1 7.119 1.552 5.806
96 1 1 6.69 2.156 6.386
97 1 1 7.148 2.632 5.697
98 1 1 6.536 2.189 5.138
99 1 1 7.076 2.729 4.581
100 1 1 7.875 2.672 4.086
101 1 1 7.308 1.979 3.77
102 1 1 7.274 1.051 3.976
103 1 1 7.333 0.485 4.741
104 1 1 7.918 0.944 5.329
105 1 1 7.884 1.832 5.01
106 1 1 8.721 1.481 4.726
107 1 1 8.361 0.694 4.341
108 1 1 8.254 1.426 3.742
109 1 1 8.841 2.164 3.836
110 1 1 9.096 2.488 4.691
111 1 1 9.765 1.833 4.537
112 1 1 9.671 0.923 4.798
113 1 1 9.456 1.425 5.573
114 1 1 9.066 1.548 6.43
115 1 1 9.797 2.146 6.356
116 1 1 10.102 1.301 6.648
117 1 1 10.138 0.382 6.858
118 1 1 10.847 0.576 6.254
119 1 1 10.627 1.036 5.454
120 1 1 10.732 0.658 4.59
121 1 1 11.069 0.376 3.751
122 1 1 11.806 0.4 4.344
123 1 1 11.927 -0.54 4.4
124 1 1 11.074 -0.461 4.807
125 1 1 11.385 0.215 5.391
126 1 1 11.871 1.026 5.341
127 1 1 12.781 0.893 5.108
128 1 1 12.919 -0.046 5.158
129 1 1 12.649 0.177 6.034
130 1 1 11.991 0.68 6.484
131 1 1 11.65 -0.2 6.375
132 1 1 12.042 -0.635 5.626
133 1 1 12.549 -1.236 5.091
134 1 1 13.046 -1.853 5.615
135 1 1 13.244 -2.524 6.255
136 1 1 12.694 -2.235 6.973
137 1 1 12.154 -2.771 6.407
138 1 1 11.398 -2.305 6.734
139 1 1 10.67 -2.018 6.204
140 1 1 10.445 -2.943 6.26
141 1 1 11.164 -3.384 6.694
142 1 1 10.608 -2.96 7.336
143 1 1 10.804 -3.858 7.577
144 1 1 10.222 -3.914 6.825
145 1 1 9.598 -3.213 6.904
146 1 1 9.74 -3.585 7.758
147 1 1 8.801 -3.401 7.824
148 1 1 8.421 -3.932 8.504
149 1 1 8.01 -4.772 8.623
150 1 1 8.562 -4.552 9.369
151 1 1 9.137 -4.726 8.633
152 1 1 8.775 -5.5 8.229
153 1 1 7.974 -5.421 7.726
154 1 1 7.357 -4.768 7.417
155 1 1 7.825 -4.477 6.645
156 1 1 8.657 -4.906 6.508
157 1 1 8.211 -4.822 5.673
158 1 1 8.477 -5.732 5.752
159 1 1 8.046 -6.291 5.121
160 1 1 8.097 -5.43 4.729
161 1 1 8.715 -4.71 4.7
162 1 1 9.176 -3.997 4.279
163 1 1 9.833 -4.483 4.767
164 1 1 10.53 -4.904 5.259
165 1 1 9.779 -5.479 5.301
166 1 1 9.097 -5.931 4.811
167 1 1 8.56 -6.127 4.047
168 1 1 8.487 -5.235 3.731
169 1 1 9.401 -5.033 3.88
170 1 1 9.125 -4.406 3.224
171 1 1 9.489 -3.531 3.259
172 1 1 10.148 -3.93 3.813
173 1 1 10.281 -4.689 3.267
174 1 1 10.57 -4.965 4.13
175 1 1 10.781 -5.751 4.617
176 1 1 9.986 -5.946 4.137
177 1 1 10.327 -6.752 4.496
178 1 1 10.278 -6.876 3.559
179 1 1 9.732 -6.241 3.117
180 1 1 8.858 -5.917 2.976
181 1 1 8.001 -6.068 2.61
182 1 1 8.258 -5.258 2.184
183 1 1 7.716 -5.738 1.58
184 1 1 7.119 -5.069 1.88
185 1 1 7.449 -4.591 2.629
186 1 1 7.472 -5.327 3.232
187 1 1 6.802 -5.728 2.695
188 1 1 6.321 -4.91 2.657
189 1 1 5.764 -5.544 3.097
190 1 1 5.698 -5.93 2.236
191 1 1 4.881 -5.663 1.832
192 1 1 4.354 -6.123 2.471
193 1 1 4.892 -6.602 3.087
194 1 1 4.168 -7.212 3.054
195 1 1 3.583 -7.894 2.754
196 1 1 3.258 -7.05 2.467
197 1 1 2.849 -7.477 1.726
198 1 1 3.758 -7.582 1.475
199 1 1 4.702 -7.517 1.549
200 1 2 4.477 -8.356 1.93
201 2 2 -2.763 5.135 -2.431
202 2 1 -2.141 4.524 -2.824
203 2 1 -2.083 3.745 -3.378
204 2 1 -2.215 3.875 -4.308
205 2 1 -3.055 3.87 -4.755
206 2 1 -3.42 4.582 -5.275
207 2 1 -3.499 4.405 -6.196
208 2 1 -3.713 3.769 -6.862
209 2 1 -2.822 3.768 -7.17
210 2 1 -3.345 4.387 -7.669
211 2 1 -2.439 4.668 -7.732
212 2 1 -2.738 4.857 -6.849
213 2 1 -2.523 5.752 -7.069
214 2 1 -2.683 5.832 -8.01
215 2 1 -3.418 6.419 -8.161
216 2 1 -4.333 6.166 -8.083
217 2 1 -5.272 6.305 -8.103
218 2 1 -6.106 5.952 -7.861
219 2 1 -6.487 6.166 -7.02
220 2 1 -7.063 6.903 -6.864
221 2 1 -6.592 7.108 -7.658
222 2 1 -7.06 7.047 -8.472
223 2 1 -6.204 6.703 -8.643
224 2 1 -6.834 5.996 -8.694
225 2 1 -7.53 6.147 -9.334
226 2 1 -7.357 5.368 -9.863
227 2 1 -7.502 4.989 -9.014
228 2 1 -7.22 5.101 -8.114
229 2 1 -7.525 4.194 -8.223
230 2 1 -6.604 4.175 -7.971
231 2 1 -6.827 3.43 -8.549
232 2 1 -7.186 3.267 -7.697
233 2 1 -8.121 3.129 -7.625
234 2 1 -7.82 2.869 -8.528
235 2 1 -7.739 3.349 -9.352
236 2 1 -7.191 4.084 -9.566
237 2 1 -6.513 4.49 -9.066
238 2 1 -5.951 5.035 -8.538
239 2 1 -5.296 4.451 -9.013
240 2 1 -4.557 4.708 -9.51
241 2 1 -4.517 5.618 -9.779
242 2 1 -3.948 6.021 -10.425
243 2 1 -3.077 5.832 -10.738
244 2 1 -2.372 5.23 -10.885
245 2 1 -1.475 5.297 -11.273
246 2 1 -0.69 4.738 -11.283
247 2 1 0.148 4.467 -10.927
248 2 1 0.882 3.889 -10.743
249 2 1 1.479 3.572 -10.086
250 2 1 2.213 3.764 -9.519
251 2 1 2.307 3.075 -8.839
252 2 1 2.052 2.53 -8.077
253 2 1 1.326 1.922 -8.097
254 2 1 0.379 1.909 -8.03
255 2 1 -0.504 1.923 -8.355
256 2 1 -0.198 1.906 -9.261
257 2 1 0.23 2.209 -10.051
258 2 1 0.803 2.579 -10.725
259 2 1 1.54 2.467 -11.297
260 2 1 1.996 1.941 -11.937
261 2 1 1.297 2.33 -12.45
262 2 1 0.581 2.463 -11.84
263 2 1 -0.08 2.142 -11.244
264 2 1 -0.309 1.253 -11.026
265 2 1 -1.039 0.659 -10.915
266 2 1 -1.758 0.377 -10.361
267 2 1 -1.226 -0.346 -10.096
268 2 1 -1.431 -0.412 -11.022
269 2 1 -2.265 -0.774 -10.77
270 2 1 -2.372 -0.545 -9.868
271 2 1 -1.791 -1.298 -9.916
272 2 1 -1.091 -1.453 -10.536
273 2 1 -0.841 -2.238 -11.002
274 2 1 -0.353 -2.24 -11.807
275 2 1 0.494 -1.813 -11.926
276 2 1 0.334 -1.752 -12.853
277 2 1 -0.389 -1.302 -12.437
278 2 1 -1.232 -0.965 -12.682
279 2 1 -1.712 -0.306 -12.193
280 2 1 -2.243 0.41 -12.527
281 2 1 -2.818 0.454 -13.292
282 2 1 -2.087 0.862 -13.743
283 2 1 -1.302 1.377 -13.824
284 2 1 -1.364 1.392 -12.873
285 2 1 -2.292 1.524 -12.703
286 2 1 -2.229 2.242 -12.08
287 2 1 -2.651 2.301 -11.241
288 2 1 -3.597 2.317 -11.169
289 2 1 -4.44 1.952 -10.946
290 2 1 -4.64 1.908 -10.023
291 2 1 -4.72 1.616 -9.135
292 2 1 -4.493 1.79 -8.234
293 2 1 -4.884 2.435 -7.67
294 2 1 -5.625 3.01 -7.791
295 2 1 -5.729 3.48 -8.616
296 2 1 -5.338 3.373 -9.461
297 2 1 -5.679 2.492 -9.558
298 2 1 -6.021 1.675 -9.217
299 2 1 -5.547 2.093 -8.508
300 2 1 -4.843 2.65 -8.81
301 2 1 -4.5 3.523 -8.606
302 2 1 -4.225 4.407 -8.382
303 2 1 -3.596 4.585 -9.069
304 2 1 -3.754 5.457 -8.712
305 2 1 -3.908 6.282 -9.161
306 2 1 -3.405 6.771 -9.799
307 2 1 -3.171 7.689 -9.856
308 2 1 -2.243 7.559 -9.999
309 2 1 -1.758 7.559 -10.825
310 2 1 -1.197 7.245 -10.125
311 2 1 -1.489 7.226 -9.222
312 2 1 -1.488 6.87 -8.331
313 2 1 -2.44 6.857 -8.395
314 2 1 -3.195 7.259 -8.812
315 2 1 -4.115 7.359 -9.058
316 2 1 -4.222 7.58 -8.135
317 2 1 -4.008 6.992 -7.427
318 2 1 -3.514 6.278 -7.06
319 2 1 -3.595 5.487 -7.585
320 2 1 -4.192 4.916 -7.128
321 2 1 -4.493 5.823 -7.089
322 2 1 -5.434 5.927 -6.941
323 2 1 -5.624 6.828 -7.203
324 2 1 -4.809 6.823 -6.712
325 2 1 -5.538 6.65 -6.116
326 2 1 -6.136 7.347 -6.406
327 2 1 -5.515 7.729 -5.795
328 2 1 -4.756 7.224 -5.572
329 2 1 -4.586 6.293 -5.749
330 2 1 -4.15 5.678 -5.185
331 2 1 -3.26 5.889 -4.968
332 2 1 -2.327 5.841 -5.158
333 2 1 -1.863 6.667 -5.268
334 2 1 -1.288 6.007 -4.923
335 2 1 -1.659 5.537 -4.183
336 2 1 -1.604 4.639 -3.847
337 2 1 -1.071 4.399 -3.115
338 2 1 -0.948 5.31 -3.324
339 2 1 -0.501 4.822 -3.999
340 2 1 -0.495 5.753 -4.202
341 2 1 0.265 5.567 -4.728
342 2 1 -0.278 6.202 -5.193
343 2 1 0.154 5.683 -5.858
344 2 1 0.614 6.499 -5.797
345 2 1 1.159 5.866 -5.346
346 2 1 1.624 5.077 -5.577
347 2 1 2.164 5.322 -6.318
348 2 1 1.983 5.793 -7.124
349 2 1 2.127 6.727 -7.129
350 2 1 2.545 6.617 -7.973
351 2 1 3.327 6.693 -8.49
352 2 1 3.909 6.046 -8.106
353 2 1 3.843 5.232 -7.617
354 2 1 2.982 5.587 -7.787
355 2 1 3.142 5.574 -8.72
356 2 1 2.192 5.639 -8.69
357 2 1 1.37 5.97 -8.344
358 2 1 1.065 5.418 -7.63
359 2 1 0.792 6.191 -7.167
360 2 1 1.129 5.686 -6.427
361 2 1 1.733 6.359 -6.154
362 2 1 2.587 6.612 -5.828
363 2 1 2.253 5.979 -5.198
364 2 1 2.347 5.142 -4.743
365 2 1 1.451 5.202 -4.431
366 2 1 0.952 5.078 -3.628
367 2 1 0.117 5.406 -3.317
368 2 1 -0.143 6.316 -3.23
369 2 1 -0.531 6.759 -2.484
370 2 1 -1.478 6.689 -2.497
371 2 1 -2.366 6.973 -2.305
372 2 1 -2.292 6.828 -3.243
373 2 1 -1.502 6.458 -3.61
374 2 1 -1.26 7.359 -3.429
375 2 1 -1.94 7.811 -2.937
376 2 1 -1.578 8.659 -3.159
377 2 1 -0.676 8.318 -3.172
378 2 1 0.07 8.62 -2.668
379 2 1 0.165 8.695 -1.738
380 2 1 -0.372 7.899 -1.742
381 2 1 0.131 7.097 -1.68
382 2 1 0.801 7.682 -2.022
383 2 1 0.674 7.249 -2.85
384 2 1 -0.093 7.423 -3.365
385 2 1 -0.426 7.078 -4.19
386 2 1 0.384 6.609 -4.291
387 2 1 1.142 6.957 -3.855
388 2 1 1.619 6.277 -4.334
389 2 1 1.753 5.881 -3.487
390 2 1 0.964 6.1 -2.991
391 2 1 0.366 6.135 -2.242
392 2 1 -0.456 5.674 -2.352
393 2 1 -1.085 5.97 -1.714
394 2 1 -1.595 6.701 -1.385
395 2 1 -1.864 5.927 -0.91
396 2 1 -0.991 5.891 -0.552
397 2 1 -0.197 5.976 -1.064
398 2 1 -0.414 5.062 -0.945
399 2 1 0.108 4.954 -1.723
400 2 2 0.672 5.097 -2.466
401 3 2 -4.454 -1.357 -8.393
402 3 1 -5.314 -1.441 -8.731
403 3 1 -6.037 -1.653 -8.164
404 3 1 -5.315 -1.428 -7.624
405 3 1 -4.495 -1.708 -7.257
406 3 1 -4.808 -2.52 -7.336
407 3 1 -4.456 -2.509 -6.451
408 3 1 -4.171 -1.775 -5.879
409 3 1 -5.065 -2.039 -5.563
410 3 1 -5.458 -2.891 -5.665
411 3 1 -5.434 -3.006 -6.644
412 3 1 -5.699 -2.11 -6.796
413 3 1 -5.762 -1.326 -6.306
414 3 1 -6.29 -1.252 -7.095
415 3 1 -6.835 -0.491 -6.906
416 3 1 -7.138 0.389 -6.673
417 3 1 -6.781 0.412 -5.776
418 3 1 -6.334 1.056 -6.279
419 3 1 -5.456 1.352 -6.41
420 3 1 -5.599 1.609 -5.51
421 3 1 -6.165 1.189 -4.889
422 3 1 -5.63 1.452 -4.184
423 3 1 -4.862 0.966 -4.462
424 3 1 -4.139 0.88 -5.096
425 3 1 -3.772 1.257 -4.317
426 3 1 -2.861 1.534 -4.428
427 3 1 -2.26 1.546 -3.689
428 3 1 -2.736 1.005 -3.087
429 3 1 -3.341 0.538 -3.65
430 3 1 -4.261 0.656 -3.49
431 3 1 -4.901 1.352 -3.39
432 3 1 -4.642 1.973 -4.057
433 3 1 -4.505 1.952 -5
434 3 1 -3.665 1.843 -5.443
435 3 1 -4.12 2.418 -6.041
436 3 1 -5.068 2.47 -6.136
437 3 1 -5.244 3.337 -5.769
438 3 1 -4.608 3.031 -5.152
439 3 1 -3.742 2.733 -4.924
440 3 1 -3.976 3.373 -4.276
441 3 1 -4.435 4.156 -4.552
442 3 1 -4.332 5.031 -4.214
443 3 1 -3.886 5.732 -3.769
444 3 1 -3.713 5.381 -2.918
445 3 1 -3.768 4.797 -2.181
446 3 1 -4.305 4.336 -2.81
447 3 1 -4.903 4.376 -3.546
448 3 1 -5.168 3.483 -3.317
449 3 1 -4.637 2.693 -3.231
450 3 1 -5.51 2.415 -3.479
451 3 1 -5.348 2.785 -4.331
452 3 1 -5.86 3.386 -4.85
453 3 1 -5.521 4.206 -5.193
454 3 1 -6.122 4.899 -4.938
455 3 1 -5.429 5.049 -4.313
456 3 1 -5.126 5.233 -5.188
457 3 1 -5.633 6.028 -5.225
458 3 1 -5.914 5.533 -5.982
459 3 1 -6.1 4.641 -6.238
460 3 1 -6.038 4.035 -6.951
461 3 1 -5.52 4.155 -7.743
462 3 1 -4.678 3.766 -7.557
463 3 1 -4.779 3.159 -6.834
464 3 1 -4.739 4.055 -6.53
465 3 1 -4.43 4.13 -5.636
466 3 1 -3.799 3.431 -5.764
467 3 1 -2.875 3.582 -5.915
468 3 1 -2.113 3.579 -5.357
469 3 1 -2.199 4.531 -5.285
470 3 1 -2.634 4.867 -4.514
471 3 1 -2.864 4.93 -3.603
472 3 1 -3.492 4.23 -3.724
473 3 1 -3.169 4.155 -2.834
474 3 1 -2.871 3.259 -2.735
475 3 1 -3.674 3.256 -3.252
476 3 1 -2.924 3.178 -3.834
477 3 1 -2.112 2.763 -4.069
478 3 1 -2.625 2.533 -4.842
479 3 1 -2.058 1.835 -5.162
480 3 1 -1.402 1.895 -4.469
481 3 1 -1.164 2.514 -5.158
482 3 1 -0.226 2.646 -5.21
483 3 1 -0.311 1.834 -4.737
484 3 1 0.599 1.966 -4.977
485 3 1 0.605 2.334 -5.84
486 3 1 -0.012 2.078 -6.506
487 3 1 -0.519 1.277 -6.573
488 3 1 -0.728 1.627 -5.716
489 3 1 -1.463 1.712 -6.299
490 3 1 -2.39 1.522 -6.152
491 3 1 -2.847 1.006 -5.497
492 3 1 -2.653 0.254 -5.001
493 3 1 -1.918 -0.345 -5.02
494 3 1 -1.361 0.257 -4.558
495 3 1 -1.992 0.953 -4.505
496 3 1 -2.325 0.268 -3.942
497 3 1 -1.731 0.634 -3.309
498 3 1 -1.096 1.104 -3.824
499 3 1 -0.666 1.254 -2.997
500 3 1 -1.417 1.842 -3
501 3 1 -2.049 2.287 -2.459
502 3 1 -2.856 1.82 -2.411
503 3 1 -2.894 2.27 -3.231
504 3 1 -3.624 2.295 -3.82
505 3 1 -3.742 1.582 -3.223
506 3 1 -3.847 2.299 -2.623
507 3 1 -3.357 2.652 -1.88
508 3 1 -2.47 2.954 -1.672
509 3 1 -1.93 3.568 -2.132
510 3 1 -2.65 4.045 -1.793
511 3 1 -2.846 4.649 -1.073
512 3 1 -2.426 3.906 -0.668
513 3 1 -2.268 4.697 -0.127
514 3 1 -2.727 5.521 -0.329
515 3 1 -3.532 5.593 -0.813
516 3 1 -3.804 5.33 0.08
517 3 1 -4.579 4.918 -0.318
518 3 1 -5.183 4.436 -0.875
519 3 1 -5.901 3.913 -1.207
520 3 1 -6.512 4.643 -1.125
521 3 1 -7.148 4.052 -1.474
522 3 1 -7.641 3.502 -2.059
523 3 1 -7.634 2.598 -2.355
524 3 1 -8.477 2.778 -1.964
525 3 1 -9.018 3.458 -2.334
526 3 1 -8.548 4.08 -1.815
527 3 1 -9.412 4.211 -1.413
528 3 1 -10.329 4.265 -1.133
529 3 1 -10.25 3.925 -2.01
530 3 1 -10.284 4.853 -2.153
531 3 1 -9.388 5.095 -2.277
532 3 1 -8.81 4.558 -2.824
533 3 1 -9.131 4.695 -3.711
534 3 1 -9.913 4.821 -3.193
535 3 1 -9.694 3.913 -3.14
536 3 1 -8.961 3.472 -3.526
537 3 1 -8.462 2.793 -3.11
538 3 1 -8.245 1.872 -3.158
539 3 1 -7.894 1.225 -3.752
540 3 1 -7.068 0.782 -3.769
541 3 1 -7.333 0.098 -4.368
542 3 1 -8.085 -0.004 -3.794
543 3 1 -8.858 -0.193 -3.289
544 3 1 -9.513 0.346 -2.881
545 3 1 -9.044 1.171 -2.811
546 3 1 -9.577 0.975 -2.043
547 3 1 -9.187 0.149 -1.765
548 3 1 -8.31 0.413 -1.517
549 3 1 -7.813 1.177 -1.233
550 3 1 -7.74 2.125 -1.196
551 3 1 -7.986 2.65 -0.45
552 3 1 -8.654 2.727 0.207
553 3 1 -8.848 3.438 0.795
554 3 1 -8.565 4.248 1.202
555 3 1 -8.443 4.609 2.077
556 3 1 -7.928 5.338 2.443
557 3 1 -7.268 4.871 2.932
558 3 1 -6.433 4.795 3.372
559 3 1 -5.772 4.233 3.756
560 3 1 -5.769 3.342 3.448
561 3 1 -6.642 3.7 3.522
562 3 1 -6.549 3.955 4.43
563 3 1 -7.203 4.558 4.114
564 3 1 -7.833 4.108 3.57
565 3 1 -8.474 4.663 3.148
566 3 1 -9.214 5.126 2.78
567 3 1 -9.964 4.76 2.325
568 3 1 -10.775 4.355 2.065
569 3 1 -11.18 4.722 2.84
570 3 1 -10.474 4.131 3.091
571 3 1 -9.723 4.502 3.534
572 3 1 -10.415 5.083 3.813
573 3 1 -10.378 5.672 4.549
574 3 1 -9.534 6.098 4.648
575 3 1 -8.888 5.502 4.995
576 3 1 -8.97 5.435 5.937
577 3 1 -9.823 5.517 5.522
578 3 1 -10.434 4.799 5.402
579 3 1 -10.294 3.866 5.513
580 3 1 -10.831 3.246 5.036
581 3 1 -10.894 3.406 4.104
582 3 1 -11.449 4.021 3.654
583 3 1 -12.09 4.699 3.812
584 3 1 -11.935 5.004 4.709
585 3 1 -11.644 4.791 5.588
586 3 1 -11.579 3.887 5.839
587 3 1 -12.478 3.818 5.562
588 3 1 -13.012 3.206 5.082
589 3 1 -13.258 2.299 4.961
590 3 1 -13.745 2.48 5.752
591 3 1 -13.771 1.548 5.596
592 3 1 -13.354 1.733 6.433
593 3 1 -12.48 1.931 6.823
594 3 1 -11.663 2.259 7.202
595 3 1 -11.318 2.992 7.692
596 3 1 -11.722 3.65 8.262
597 3 1 -12.499 4.189 8.331
598 3 1 -13.324 4.051 7.856
599 3 1 -13.949 3.944 7.156
600 3 2 -13.843 3.062 6.833
601 4 2 3.639 -8.375 -12.116
602 4 1 2.841 -8.531 -11.61
603 4 1 2.767 -8.994 -10.794
604 4 1 2.248 -8.203 -10.721
605 4 1 1.658 -7.845 -10.086
606 4 1 1.735 -8.05 -9.171
607 4 1 1.45 -8.403 -8.328
608 4 1 1.646 -7.592 -7.868
609 4 1 1.073 -7.376 -8.588
610 4 1 0.761 -7.569 -9.468
611 4 1 0.521 -8.143 -10.189
612 4 1 0.995 -8.71 -10.786
613 4 1 0.116 -9.025 -10.922
614 4 1 -0.762 -9.231 -10.592
615 4 1 -0.779 -8.428 -10.094
616 4 1 -1.377 -8.955 -9.59
617 4 1 -2.135 -9.487 -9.339
618 4 1 -2.247 -10.217 -8.733
619 4 1 -2.128 -10.212 -7.806
620 4 1 -2.072 -9.685 -7.014
621 4 1 -1.814 -8.876 -6.594
622 4 1 -1.447 -9.559 -6.059
623 4 1 -0.902 -9.646 -6.827
624 4 1 -0.786 -8.718 -7.059
625 4 1 -0.693 -8.584 -8.001
626 4 1 -0.534 -9.193 -8.699
627 4 1 -0.301 -9.31 -9.61
628 4 1 -0.127 -10.045 -10.206
629 4 1 0.687 -9.921 -10.673
630 4 1 0.968 -10.715 -11.119
631 4 1 0.186 -11.024 -10.689
632 4 1 -0.29 -11.824 -10.478
633 4 1 0.116 -11.499 -9.688
634 4 1 0.783 -11.92 -10.218
635 4 1 0.367 -12.649 -9.793
636 4 1 0.472 -13.15 -8.999
637 4 1 -0.261 -13.663 -9.308
638 4 1 0.172 -14.324 -8.792
639 4 1 0.994 14.307 -9.252
640 4 1 1.136 -14.026 -8.37
641 4 1 1.099 13.681 -8.326
642 4 1 0.503 13.77 -7.589
643 4 1 -0.075 13.745 -6.831
644 4 1 -0.443 -14.064 -7.062
645 4 1 -0.341 -13.632 -7.905
646 4 1 0.481 -13.452 -7.474
647 4 1 0.51 -13.471 -6.539
648 4 1 1.161 -12.857 -6.227
649 4 1 2.066 -12.829 -6.492
650 4 1 2.7 -12.126 -6.463
651 4 1 2.741 -11.585 -7.245
652 4 1 2.876 -10.668 -7.059
653 4 1 2.402 -9.948 -6.664
654 4 1 1.819 -9.209 -6.646
655 4 1 0.953 -9.099 -6.299
656 4 1 0.04 -8.832 -6.338
657 4 1 -0.233 -8.418 -5.527
658 4 1 0.005 -8.117 -4.667
659 4 1 -0.857 -8.152 -4.269
660 4 1 -0.903 -9.102 -4.166
661 4 1 -0.533 -9.948 -4.41
662 4 1 -0.454 -9.48 -5.245
663 4 1 0.452 -9.221 -5.318
664 4 1 0.263 -9.182 -4.392
665 4 1 0.04 -8.746 -3.587
666 4 1 0.834 -8.334 -3.911
667 4 1 1.511 -8.574 -4.539
668 4 1 2.025 -7.902 -4.108
669 4 1 2.374 -7.25 -3.513
670 4 1 2.34 -6.922 -2.623
671 4 1 1.511 -6.57 -2.33
672 4 1 1.248 -5.815 -1.82
673 4 1 1.728 -5.337 -1.157
674 4 1 2.48 -4.846 -0.848
675 4 1 3.286 -4.567 -1.261
676 4 1 2.614 -4.049 -1.696
677 4 1 1.912 -4.512 -2.131
678 4 1 2.105 -3.775 -2.695
679 4 1 2.291 -2.877 -2.938
680 4 1 2.662 -2.985 -2.077
681 4 1 2.144 -2.605 -1.374
682 4 1 1.719 -3.414 -1.636
683 4 1 1.388 -4.204 -1.228
684 4 1 0.795 -3.498 -1.024
685 4 1 0.541 -3.677 -1.919
686 4 1 -0.046 -3.158 -2.454
687 4 1 0.142 -2.23 -2.491
688 4 1 -0.087 -1.792 -3.303
689 4 1 0.842 -1.902 -3.436
690 4 1 0.401 -2.732 -3.56
691 4 1 -0.126 -3.515 -3.465
692 4 1 0.723 -3.683 -3.086
693 4 1 1.15 -2.918 -2.737
694 4 1 1.027 -2.448 -1.917
695 4 1 0.222 -2.668 -1.46
696 4 1 -0.631 -3.075 -1.545
697 4 1 -1.418 -3.59 -1.465
698 4 1 -2.214 -4.002 -1.744
699 4 1 -3.149 -4.041 -1.853
700 4 1 -4.03 -3.818 -2.131
701 4 1 -4.598 -3.454 -2.806
702 4 1 -5.4 -3.077 -2.473
703 4 1 -5.454 -2.209 -2.106
704 4 1 -5.185 -1.434 -2.572
705 4 1 -5.982 -1.769 -2.965
706 4 1 -5.236 -2.279 -3.262
707 4 1 -4.401 -1.828 -3.303
708 4 1 -3.969 -2.628 -3.564
709 4 1 -4.733 -2.757 -4.113
710 4 1 -4.619 -3.668 -3.899
711 4 1 -4.06 -4.017 -4.594
712 4 1 -4.509 -3.323 -5.058
713 4 1 -5.396 -3.504 -4.853
714 4 1 -6.153 -2.96 -4.751
715 4 1 -6.169 -2.123 -4.294
716 4 1 -6.328 -1.238 -3.961
717 4 1 -5.384 -1.277 -3.911
718 4 1 -5.633 -0.702 -3.193
719 4 1 -4.778 -0.282 -3.112
720 4 1 -3.869 -0.341 -3.376
721 4 1 -4.366 -0.847 -3.988
722 4 1 -5 -0.171 -4.184
723 4 1 -5.732 0.348 -3.866
724 4 1 -6.232 -0.215 -4.469
725 4 1 -5.904 -0.941 -5.014
726 4 1 -4.934 -0.894 -4.961
727 4 1 -4.366 -0.183 -5.29
728 4 1 -3.784 -0.034 -4.597
729 4 1 -3.061 -0.517 -4.515
730 4 1 -3.781 -1.19 -4.846
731 4 1 -4.157 -2.053 -4.567
732 4 1 -3.088 -2.153 -4.382
733 4 1 -2.734 -1.953 -5.225
734 4 1 -3.067 -1.592 -6.241
735 4 1 -3.254 -0.999 -7.008
736 4 1 -2.664 -0.576 -6.202
737 4 1 -1.982 -1.172 -6.398
738 4 1 -1.424 -0.427 -6.432
739 4 1 -2.043 -0.395 -7.154
740 4 1 -2.191 -1.093 -7.765
741 4 1 -2.702 -0.435 -8.223
742 4 1 -3.498 -0.496 -8.734
743 4 1 -3.271 0.075 -9.456
744 4 1 -4.01 -0.07 -10.044
745 4 1 -4.441 -0.19 -10.89
746 4 1 -3.584 -0.505 -11.152
747 4 1 -2.942 -0.223 -11.79
748 4 1 -2.703 -0.579 -12.636
749 4 1 -2.23 -1.321 -12.973
750 4 1 -1.548 -1.844 -13.385
751 4 1 -0.621 -1.667 -13.493
752 4 1 0.092 -1.081 -13.686
753 4 1 0.957 -1.427 -13.841
754 4 1 0.345 -2.147 -13.869
755 4 1 -0.292 -1.904 14.128
756 4 1 0.549 -1.96 13.69
757 4 1 0.233 -2.837 13.858
758 4 1 1.03 -3.347 13.863
759 4 1 1.319 -2.539 14.264
760 4 1 1.662 -2.829 -13.556
761 4 1 1.915 -1.922 -13.705
762 4 1 2.418 -2.237 14.212
763 4 1 2.68 -3.023 -13.984
764 4 1 2.208 -3.433 13.958
765 4 1 2.922 -2.953 13.56
766 4 1 2.672 -2.172 13.081
767 4 1 3.163 -1.562 12.543
768 4 1 3.657 -0.929 12.038
769 4 1 4.29 -1.362 12.595
770 4 1 3.785 -0.84 13.204
771 4 1 3.036 -0.395 12.832
772 4 1 2.955 -0.116 13.735
773 4 1 3.458 -0.456 -14.19
774 4 1 2.709 -0.076 -13.752
775 4 1 2.586 -0.992 -13.54
776 4 1 3.309 -1.539 -13.262
777 4 1 3.276 -2.47 -13.093
778 4 1 2.394 -2.321 -12.775
779 4 1 2.796 -1.908 -12.021
780 4 1 3.217 -2.757 -12.033
781 4 1 3.686 -3.467 -12.454
782 4 1 3.976 -3.422 -11.553
783 4 1 4.791 -3.347 -12.017
784 4 1 5.3 -3.696 -11.315
785 4 1 4.746 -3.631 -10.567
786 4 1 4.32 -2.848 -10.253
787 4 1 4.788 -2.443 -10.953
788 4 1 3.822 -2.439 -11.117
789 4 1 4.281 -1.886 -11.733
790 4 1 4.302 -1.054 -11.238
791 4 1 4.502 -0.497 -11.961
792 4 1 4.009 -1.04 -12.58
793 4 1 3.415 -0.943 -11.837
794 4 1 3.014 -0.535 -12.595
795 4 1 3.771 0.037 -12.529
796 4 1 4.341 0.747 -12.786
797 4 1 4.645 0.234 -13.529
798 4 1 3.746 0.511 -13.657
799 4 1 3.194 0.906 -12.994
800 4 2 3.315 1.393 -12.187
801 5 2 -4.971 -12.788 8.425
802 5 1 -4.967 -13.692 8.704
803 5 1 -5.771 -13.314 9.008
804 5 1 -6.195 -13.054 9.816
805 5 1 -6.691 -13.77 9.411
806 5 1 -6.192 14.147 9.717
807 5 1 -5.836 -14.103 10.492
808 5 1 -5.204 -13.561 10.056
809 5 1 -4.97 -12.769 9.575
810 5 1 -4.607 -12.024 9.106
811 5 1 -5.189 -11.266 9.21
812 5 1 -5.803 -10.545 9.159
813 5 1 -6.021 -9.939 8.479
814 5 1 -6.705 -9.285 8.561
815 5 1 -7.048 -9.979 8.016
816 5 1 -6.541 -10.428 7.354
817 5 1 -6.897 -10.647 6.496
818 5 1 -5.952 -10.769 6.43
819 5 1 -5.521 -11.612 6.402
820 5 1 -6.193 -11.787 5.742
821 5 1 -5.974 -11.814 4.817
822 5 1 -5.447 -11.301 4.208
823 5 1 -6.275 -10.861 4.258
824 5 1 -6.241 -10.792 5.207
825 5 1 -7.071 -11.132 5.516
826 5 1 -7.795 -10.518 5.482
827 5 1 -8.402 -10.356 4.777
828 5 1 -9.341 -10.231 4.722
829 5 1 -10.059 -10.59 5.226
830 5 1 -10.07 -9.879 5.857
831 5 1 -9.842 -9.014 5.535
832 5 1 -10.318 -9.42 4.823
833 5 1 -10.959 -9.061 5.424
834 5 1 -11.094 -8.132 5.566
835 5 1 -10.77 -7.491 6.185
836 5 1 -10.975 -8.287 6.653
837 5 1 -10.826 -9.21 6.517
838 5 1 -9.991 -8.752 6.586
839 5 1 -9.647 -7.996 6.114
840 5 1 -9.106 -8.095 6.891
841 5 1 -9.378 -8.715 7.555
842 5 1 -8.542 -9.071 7.815
843 5 1 -7.972 -8.375 8.127
844 5 1 -8.149 -7.79 7.398
845 5 1 -7.851 -8.635 7.08
846 5 1 -7.109 -8.99 7.547
847 5 1 -6.334 -8.514 7.821
848 5 1 -5.812 -7.805 8.17
849 5 1 -6.469 -7.305 8.638
850 5 1 -7.101 -6.707 9.008
851 5 1 -7.754 -6.457 8.373
852 5 1 -8.221 -5.647 8.557
853 5 1 -7.407 -5.639 9.037
854 5 1 -6.475 -5.669 8.9
855 5 1 -5.891 -6.379 8.701
856 5 1 -5.052 -6.817 8.74
857 5 1 -5.106 -7.726 9.014
858 5 1 -5.953 -7.992 9.343
859 5 1 -6.804 -8.319 9.094
860 5 1 -7.487 -7.704 8.873
861 5 1 -8.381 -7.452 8.66
862 5 1 -9.055 -7.593 9.305
863 5 1 -8.966 -6.92 9.957
864 5 1 -8.084 -7.245 9.852
865 5 1 -7.147 -7.371 9.915
866 5 1 -7.435 -7.017 10.737
867 5 1 -7.683 -7.931 10.655
868 5 1 -7.685 -8.375 9.809
869 5 1 -8.332 -8.575 9.151
870 5 1 -9.108 -8.465 8.61
871 5 1 -10.049 -8.36 8.622
872 5 1 -10.867 -7.895 8.521
873 5 1 -11.563 -7.316 8.802
874 5 1 -11.422 -6.669 9.487
875 5 1 -10.675 -6.683 10.074
876 5 1 -9.962 -6.842 10.683
877 5 1 -9.187 -6.927 11.228
878 5 1 -8.778 -7.645 10.748
879 5 1 -8.629 -8.516 10.404
880 5 1 -9.258 -8.61 9.698
881 5 1 -9.675 -9.264 9.152
882 5 1 -8.94 -9.642 8.687
883 5 1 -8.724 -9.597 9.606
884 5 1 -9.47 -9.698 10.184
885 5 1 -9.016 -10.534 10.177
886 5 1 -9.404 -10.412 9.319
887 5 1 -10.145 -10.989 9.207
888 5 1 -11.013 -10.952 8.834
889 5 1 -11.487 -11.727 8.564
890 5 1 -11.57 -12.637 8.823
891 5 1 -12.322 -13.073 9.204
892 5 1 -12.757 -12.231 9.186
893 5 1 -12.592 -11.301 9.134
894 5 1 -11.979 -10.797 9.656
895 5 1 -12.486 -11.183 10.363
896 5 1 -12.882 -11.739 11.03
897 5 1 -13.431 -11.72 10.257
898 5 1 -14.03 -11.013 10.068
899 5 1 14.112 -11.622 9.552
900 5 1 -13.682 -11.625 9.164
901 5 1 -13.779 -12.569 9.085
902 5 1 -13.291 -13.271 8.679
903 5 1 -13.437 -12.607 8.012
904 5 1 -14.037 -13.306 7.777
905 5 1 -13.156 -13.604 7.588
906 5 1 -12.888 14.141 7.539
907 5 1 -11.966 13.907 7.533
908 5 1 -12.066 -13.934 7.043
909 5 1 -12.297 -13.017 6.917
910 5 1 -12.711 -12.239 7.268
911 5 1 -12.549 -11.845 8.117
912 5 1 -12.144 -11.068 7.752
913 5 1 -12.913 -10.68 7.357
914 5 1 -13.205 -9.932 6.853
915 5 1 -12.329 -10.175 6.58
916 5 1 -11.885 -9.444 6.177
917 5 1 -11.188 -10.055 5.968
918 5 1 -10.894 -10.904 6.268
919 5 1 -10.492 -10.255 6.827
920 5 1 -10.216 -11.106 7.119
921 5 1 -10.991 -11.491 7.501
922 5 1 -11.694 -11.629 6.869
923 5 1 -12.55 -11.338 6.568
924 5 1 -12.667 -12.194 6.171
925 5 1 -11.841 -11.892 5.813
926 5 1 -10.887 -11.947 5.821
927 5 1 -11.147 -12.503 6.537
928 5 1 -11.712 -13.034 5.999
929 5 1 -10.828 -13.077 5.638
930 5 1 -10.379 -13.359 4.847
931 5 1 -9.69 -13.913 5.176
932 5 1 -8.993 -14.303 4.664
933 5 1 -8.916 13.416 4.528
934 5 1 -9.35 12.71 4.983
935 5 1 -10.194 12.578 5.409
936 5 1 -10.525 12.615 6.304
937 5 1 -10.919 13.432 6.594
938 5 1 -10.701 14.324 6.339
939 5 1 -11.02 -13.576 6.825
940 5 1 -10.941 -14.323 7.405
941 5 1 -10.97 13.503 7.871
942 5 1 -11.411 12.771 7.456
943 5 1 -10.763 12.091 7.332
944 5 1 -9.906 12.476 7.217
945 5 1 -9.281 13.171 7.079
946 5 1 -8.71 13.668 6.505
947 5 1 -8.233 14.148 5.842
948 5 1 -7.683 -13.737 5.825
949 5 1 -8.152 -13.013 6.226
950 5 1 -8.683 -12.521 6.846
951 5 1 -8.298 -12.04 7.574
952 5 1 -8.36 -12.371 8.46
953 5 1 -8.769 -12.989 9.054
954 5 1 -9.522 -12.419 8.956
955 5 1 -9.188 -11.604 8.608
956 5 1 -9.225 -10.721 8.258
957 5 1 -9.058 -10.07 7.58
958 5 1 -8.211 -10.087 8.003
959 5 1 -7.853 -9.451 8.602
960 5 1 -7.595 -9.437 9.511
961 5 1 -7.93 -10.317 9.378
962 5 1 -8.492 -11.074 9.27
963 5 1 -9.214 -11.513 9.703
964 5 1 -9.127 -12.416 9.978
965 5 1 -8.305 -12.106 9.6
966 5 1 -8.287 -11.573 10.386
967 5 1 -7.888 -11.5 11.245
968 5 1 -6.968 -11.268 11.205
969 5 1 -6.594 -10.396 11.18
970 5 1 -6.965 -9.616 10.787
971 5 1 -6.778 -8.954 10.131
972 5 1 -6.664 -8.27 10.783
973 5 1 -7.078 -7.992 11.591
974 5 1 -7.439 -8.618 12.215
975 5 1 -6.731 -9.05 11.763
976 5 1 -6.087 -9.729 11.906
977 5 1 -5.182 -9.672 11.612
978 5 1 -4.394 -9.509 11.103
979 5 1 -3.573 -9.915 11.35
980 5 1 -3.463 -10.006 12.286
981 5 1 -4.056 -9.276 12.132
982 5 1 -3.342 -8.859 11.663
983 5 1 -2.551 -9.319 11.394
984 5 1 -2.526 -9.427 12.331
985 5 1 -2.412 -10.322 12.627
986 5 1 -2.425 -10.392 11.686
987 5 1 -1.568 -10.037 11.485
988 5 1 -1.375 -9.961 12.415
989 5 1 -0.82 -9.524 13.054
990 5 1 0.11 -9.519 12.877
991 5 1 -0.297 -10.032 12.197
992 5 1 -0.611 -10.618 11.528
993 5 1 -1.039 -11.457 11.62
994 5 1 -1.642 -12.008 11.136
995 5 1 -2.241 -11.539 11.696
996 5 1 -1.914 -12.157 12.327
997 5 1 -1.652 -12.292 13.231
998 5 1 -1.302 -11.45 13.472
999 5 1 -1.688 -10.578 13.47
1000 5 2 -2.564 -10.623 13.837
1001 6 2 3.34 -2.819 -3.155
1002 6 1 4.138 -2.927 -3.644
1003 6 1 4.576 -3.25 -4.411
1004 6 1 4.783 -2.527 -4.988
1005 6 1 4.649 -1.697 -5.439
1006 6 1 4.792 -1.18 -6.214
1007 6 1 5.33 -0.399 -6.352
1008 6 1 5.747 -0.954 -5.7
1009 6 1 5.951 -0.36 -4.988
1010 6 1 5.61 -0.429 -4.108
1011 6 1 4.792 -0.801 -3.821
1012 6 1 4.167 -1.399 -4.179
1013 6 1 3.364 -0.917 -4.071
1014 6 1 3.892 -0.417 -4.676
1015 6 1 4.15 0.166 -3.974
1016 6 1 4.797 0.144 -4.666
1017 6 1 4.894 -0.756 -4.93
1018 6 1 5.169 -1.553 -4.508
1019 6 1 4.9 -2.185 -3.86
1020 6 1 4.91 -2.513 -2.975
1021 6 1 5.848 -2.483 -3.141
1022 6 1 6.531 -1.841 -3.277
1023 6 1 7.309 -1.955 -3.809
1024 6 1 6.898 -2.806 -3.843
1025 6 1 6.315 -3.457 -3.49
1026 6 1 5.688 -3.053 -4.071
1027 6 1 5.98 -2.164 -4.208
1028 6 1 6.219 -1.423 -4.751
1029 6 1 7.162 -1.4 -4.806
1030 6 1 7.469 -1.829 -5.593
1031 6 1 7.342 -2.143 -6.482
1032 6 1 6.645 -1.576 -6.176
1033 6 1 6.289 -2.073 -6.898
1034 6 1 5.77 -1.283 -6.785
1035 6 1 4.98 -1.168 -7.293
1036 6 1 4.869 -2.032 -6.918
1037 6 1 5.354 -2.162 -6.12
1038 6 1 5.842 -2.309 -5.324
1039 6 1 6.713 -2.412 -4.974
1040 6 1 7.61 -2.56 -4.719
1041 6 1 8.083 -2.934 -5.457
1042 6 1 8.627 -2.865 -6.241
1043 6 1 8.926 -2.918 -7.147
1044 6 1 8.656 -2.718 -8.039
1045 6 1 7.731 -2.901 -8.155
1046 6 1 7.154 -2.377 -7.605
1047 6 1 7.261 -1.439 -7.642
1048 6 1 6.816 -0.889 -7.007
1049 6 1 6.206 -1.057 -7.741
1050 6 1 6.318 -1.865 -8.22
1051 6 1 5.508 -2.092 -7.799
1052 6 1 4.717 -2.614 -7.853
1053 6 1 4.678 -3.545 -7.674
1054 6 1 4.417 -3.058 -6.883
1055 6 1 4.305 -2.511 -6.098
1056 6 1 3.645 -1.86 -5.888
1057 6 1 3.707 -2.052 -4.961
1058 6 1 3.301 -2.035 -4.099
1059 6 1 2.709 -2.768 -4.009
1060 6 1 3.452 -3.055 -4.527
1061 6 1 3.218 -3.612 -5.261
1062 6 1 4.088 -3.415 -5.576
1063 6 1 3.772 -3.816 -6.379
1064 6 1 3.219 -3.495 -7.083
1065 6 1 3.692 -3.016 -7.751
1066 6 1 3.937 -2.707 -8.613
1067 6 1 3.782 -1.828 -8.265
1068 6 1 3.795 -1.561 -7.349
1069 6 1 3.544 -2.358 -6.897
1070 6 1 3.273 -2.893 -6.16
1071 6 1 2.619 -2.243 -5.966
1072 6 1 2.415 -2.397 -6.876
1073 6 1 2.779 -1.868 -7.573
1074 6 1 2.734 -0.995 -7.947
1075 6 1 3.38 -0.87 -8.63
1076 6 1 2.863 -1.636 -8.855