ITEM: TIMESTEP
1
ITEM: NUMBER OF ATOMS
12900
ITEM: BOX BOUNDS pp pp pp
-12.0091 12.0091
-12.0091 12.0091
-12.0091 12.0091
ITEM: ATOMS id mol type x y z
1 1 2 2.48300000000017 -7.22059999999965 1.50900000000001
2 1 1 1.98300000000017 -6.62059999999929 2.10899999999992
3 1 1 1.58300000000054 -5.79059999999936 2.37899999999991
4 1 1 1.98300000000017 -4.96059999999943 2.64899999999989
5 1 1 2.08300000000054 -4.09059999999954 3.09899999999971
6 1 1 2.98300000000017 -3.81059999999979 3.19899999999961
7 1 1 3.78300000000127 -4.12059999999929 3.43899999999985
8 1 1 4.6830000000009 -4.10059999999976 3.09899999999971
9 1 1 5.08300000000054 -4.91060000000016 3.29899999999998
10 1 1 5.98300000000017 -5.34059999999954 3.58899999999994
11 1 1 6.48300000000017 -5.65059999999994 4.29899999999998
12 1 1 7.1830000000009 -6.17059999999947 4.68899999999985
13 1 1 7.6830000000009 -6.81059999999979 5.20899999999983
14 1 1 7.88299999999981 -7.62059999999929 5.70899999999983
15 1 1 8.08300000000054 -8.56059999999979 5.79899999999998
16 1 1 8.58300000000054 -9.43059999999969 5.779
17 1 1 8.98300000000017 -10.2505999999994 5.92899999999963
18 1 1 8.6830000000009 -11.1405999999997 6.13899999999967
19 1 1 8.08300000000054 -11.4605999999994 5.62899999999991
20 1 1 7.98300000000017 11.7276000000002 5.2189999999996
21 1 1 7.58300000000054 10.9175999999998 4.79899999999998
22 1 1 7.38299999999981 10.0375999999997 4.4989999999998
23 1 1 6.48300000000017 9.89760000000024 4.70899999999983
24 1 1 5.48300000000017 9.85759999999937 4.91899999999987
25 1 1 4.78300000000127 10.1975999999995 5.45899999999983
26 1 1 3.88299999999981 10.6575999999995 5.86899999999969
27 1 1 3.48300000000017 11.3675999999996 6.37899999999991
28 1 1 2.88299999999981 -11.8805999999995 6.37899999999991
29 1 1 2.58300000000054 -11.1005999999998 6.78899999999976
30 1 1 2.78300000000127 -10.3505999999998 6.22899999999981
31 1 1 3.6830000000009 -10.3206 6.12899999999991
32 1 1 4.58300000000054 -10.2006000000001 5.70899999999983
33 1 1 4.78300000000127 -9.87059999999929 4.78899999999976
34 1 1 5.48300000000017 -9.80059999999958 4.19899999999961
35 1 1 5.88299999999981 -9.00059999999939 3.779
36 1 1 6.28300000000127 -8.16060000000016 3.60899999999992
37 1 1 6.28300000000127 -7.32060000000001 3.16899999999987
38 1 1 5.58300000000054 -6.90059999999994 2.54899999999998
39 1 1 5.28300000000127 -7.29059999999936 1.76899999999978
40 1 1 5.28300000000127 -7.91060000000016 1.04899999999998
41 1 1 5.6830000000009 -8.51059999999961 0.378999999999905
42 1 1 6.08300000000054 -8.34059999999954 -0.490999999999985
43 1 1 6.58300000000054 -8.27059999999983 -1.32100000000037
44 1 1 7.1830000000009 -8.64059999999972 -1.90100000000029
45 1 1 7.6830000000009 -9.36059999999998 -2.20100000000002
46 1 1 8.38299999999981 -9.83059999999932 -2.66100000000006
47 1 1 9.28300000000127 -9.68059999999969 -2.44100000000026
48 1 1 9.88299999999981 -9.05059999999958 -2.61100000000033
49 1 1 9.98300000000017 -8.24060000000009 -3.09100000000035
50 1 1 10.3829999999998 -7.68059999999969 -3.70100000000002
51 1 1 10.6830000000009 -7.62059999999929 -4.63100000000031
52 1 1 9.98300000000017 -7.41060000000016 -5.31100000000015
53 1 1 9.28300000000127 -7.18059999999969 -5.96100000000024
54 1 1 9.48300000000017 -7.11059999999998 -6.92100000000028
55 1 1 8.58300000000054 -7.15059999999994 -7.39100000000008
56 1 1 7.6830000000009 -6.81059999999979 -7.48100000000022
57 1 1 6.78300000000127 -6.37059999999929 -7.68100000000004
58 1 1 6.1830000000009 -6.71059999999943 -8.29100000000017
59 1 1 5.48300000000017 -6.58059999999932 -8.98100000000022
60 1 1 5.1830000000009 -6.61059999999998 -9.90100000000029
61 1 1 5.08300000000054 -6.40059999999994 -10.8110000000001
62 1 1 5.38299999999981 -6.67059999999947 -11.7110000000002
63 1 1 5.48300000000017 -7.23059999999987 11.5472
64 1 1 5.88299999999981 -7.93059999999969 10.9671999999996
65 1 1 6.58300000000054 -8.62059999999929 10.9771999999998
66 1 1 6.1830000000009 -9.54059999999936 10.8971999999999
67 1 1 6.08300000000054 -10.4906000000001 10.7171999999996
68 1 1 5.78300000000127 -11.1106 10.0272
69 1 1 5.88299999999981 -10.9405999999999 9.0971999999997
70 1 1 5.88299999999981 -10.4805999999999 8.24719999999979
71 1 1 5.98300000000017 -9.68059999999969 7.70719999999983
72 1 1 5.78300000000127 -8.89059999999972 7.25720000000001
73 1 1 5.48300000000017 -8.08059999999932 6.83719999999994
74 1 1 4.98300000000017 -7.31059999999979 6.63719999999967
75 1 1 4.88299999999981 -7.53060000000005 5.67719999999963
76 1 1 4.6830000000009 -6.9405999999999 4.85719999999992
77 1 1 4.38299999999981 -7.36059999999998 4.05719999999974
78 1 1 4.28300000000127 -8.02059999999983 3.30719999999974
79 1 1 3.58300000000054 -7.90059999999994 2.5971999999997
80 1 1 3.28300000000127 -7.02059999999983 2.41719999999987
81 1 1 3.08300000000054 -6.4405999999999 1.69719999999961
82 1 1 2.58300000000054 -6.11059999999998 0.92719999999963
83 1 1 2.58300000000054 -6.54059999999936 -0.00280000000020664
84 1 1 2.78300000000127 -6.82060000000001 -0.902800000000298
85 1 1 2.88299999999981 -7.34059999999954 -1.78280000000041
86 1 1 3.08300000000054 -8.1905999999999 -2.26280000000042
87 1 1 3.1830000000009 -9.11059999999998 -1.98280000000022
88 1 1 3.28300000000127 -10.0105999999996 -2.25280000000021
89 1 1 4.1830000000009 -9.55059999999958 -2.11280000000033
90 1 1 4.88299999999981 -9.32060000000001 -1.42280000000028
91 1 1 5.58300000000054 -9.34059999999954 -0.872800000000097
92 1 1 6.28300000000127 -9.32060000000001 -0.282800000000407
93 1 1 6.78300000000127 -9.04059999999936 0.537199999999757
94 1 1 7.58300000000054 -9.01059999999961 1.00720000000001
95 1 1 8.08300000000054 -8.42059999999947 1.6271999999999
96 1 1 8.38299999999981 -7.65059999999994 2.05719999999974
97 1 1 9.08300000000054 -7.53060000000005 2.61719999999968
98 1 1 9.98300000000017 -7.53060000000005 2.47719999999981
99 1 1 10.6830000000009 -7.06059999999979 2.98719999999958
100 1 2 11.0830000000005 -7.00059999999939 3.88719999999967
101 2 2 5.38299999999981 9.34940000000006 1.59899999999971
102 2 1 5.28300000000127 8.38940000000002 1.93899999999985
103 2 1 5.58300000000054 7.48940000000039 2.15899999999965
104 2 1 5.6830000000009 6.66940000000068 1.68899999999985
105 2 1 6.48300000000017 6.06940000000031 1.72899999999981
106 2 1 7.38299999999981 5.65940000000046 1.57899999999972
107 2 1 7.38299999999981 4.90940000000046 0.989000000000033
108 2 1 7.28300000000127 4.06940000000031 0.528999999999996
109 2 1 7.78300000000127 3.8694000000005 -0.271000000000186
110 2 1 7.48300000000017 4.56940000000031 -0.901000000000295
111 2 1 7.6830000000009 4.75939999999991 -1.84100000000035
112 2 1 8.08300000000054 4.15940000000046 -2.49099999999999
113 2 1 7.88299999999981 3.43940000000021 -3.13100000000031
114 2 1 7.58300000000054 2.87940000000071 -3.79100000000017
115 2 1 7.88299999999981 2.82940000000053 -4.69100000000026
116 2 1 8.1830000000009 2.81940000000031 -5.54100000000017
117 2 1 8.08300000000054 2.78940000000057 -6.48100000000022
118 2 1 8.28300000000127 3.70940000000064 -6.70100000000002
119 2 1 8.48300000000017 4.48940000000039 -7.37100000000009
120 2 1 8.38299999999981 5.31940000000031 -7.93100000000004
121 2 1 8.78300000000127 6.0594000000001 -8.48100000000022
122 2 1 9.48300000000017 6.78940000000057 -8.24099999999999
123 2 1 10.0830000000005 7.22940000000017 -7.56100000000015
124 2 1 10.5830000000005 7.93940000000021 -7.10100000000011
125 2 1 10.7830000000013 8.81940000000031 -7.40100000000029
126 2 1 10.5830000000005 9.64940000000024 -6.91100000000006
127 2 1 10.7830000000013 10.5294000000004 -6.721
128 2 1 10.3829999999998 11.3494000000001 -6.61100000000033
129 2 1 10.1830000000009 -11.7988000000005 -6.87100000000009
130 2 1 9.78300000000127 -11.0488000000005 -7.34100000000035
131 2 1 9.78300000000127 -10.0788000000002 -7.11100000000033
132 2 1 9.6830000000009 -9.14879999999994 -7.16100000000006
133 2 1 9.1830000000009 -9.20880000000034 -6.33100000000013
134 2 1 9.28300000000127 -9.40880000000016 -5.41100000000006
135 2 1 9.1830000000009 -9.1887999999999 -4.46100000000024
136 2 1 8.88299999999981 -8.40880000000016 -3.96100000000024
137 2 1 8.6830000000009 -8.28880000000026 -3.04100000000017
138 2 1 9.1830000000009 -8.10879999999997 -2.2510000000002
139 2 1 8.78300000000127 -8.23880000000008 -1.38100000000031
140 2 1 8.08300000000054 -8.75880000000052 -1.01099999999997
141 2 1 7.1830000000009 -9.12880000000041 -0.941000000000258
142 2 1 6.58300000000054 -9.52880000000005 -1.55100000000039
143 2 1 5.98300000000017 -10.2388000000001 -1.60100000000011
144 2 1 6.08300000000054 -11.2287999999999 -1.55100000000039
145 2 1 6.08300000000054 -11.7588000000005 -0.721000000000004
146 2 1 6.08300000000054 11.5493999999999 0.00900000000001455
147 2 1 6.58300000000054 10.7094000000006 0.0789999999997235
148 2 1 7.1830000000009 9.98940000000039 0.0189999999997781
149 2 1 7.98300000000017 9.56940000000031 -0.0310000000004038
150 2 1 8.88299999999981 9.92939999999999 -0.201000000000022
151 2 1 9.88299999999981 9.84940000000006 -0.141000000000076
152 2 1 10.6830000000009 9.41940000000068 0.168999999999869
153 2 1 11.0830000000005 9.62940000000071 1.01899999999978
154 2 1 11.0830000000005 9.27940000000035 1.87899999999991
155 2 1 10.6830000000009 9.02940000000035 2.7189999999996
156 2 1 10.8829999999998 8.66940000000068 3.55899999999974
157 2 1 11.1830000000009 8.1194000000005 4.29899999999998
158 2 1 10.6830000000009 7.73940000000039 5.03899999999976
159 2 1 10.9830000000002 7.03940000000057 5.61899999999969
160 2 1 10.3829999999998 6.53940000000057 6.11899999999969
161 2 1 9.48300000000017 6.09940000000006 5.95899999999983
162 2 1 9.6830000000009 5.90940000000046 6.85899999999992
163 2 1 9.78300000000127 5.45940000000064 7.69899999999961
164 2 1 10.2830000000013 5.49940000000061 8.4989999999998
165 2 1 10.5830000000005 5.34940000000006 9.36899999999969
166 2 1 10.2830000000013 5.29939999999988 10.299
167 2 1 10.0830000000005 4.89940000000024 11.1689999999999
168 2 1 10.4830000000002 5.62940000000071 11.5889999999999
169 2 1 11.1830000000009 5.79939999999988 -11.7592
170 2 1 -11.9351999999999 6.20940000000064 -11.6192000000001
171 2 1 -11.5352000000003 6.25939999999991 -10.7992000000004
172 2 1 -10.7351999999992 6.0594000000001 -11.1792
173 2 1 -10.0352000000003 5.53940000000057 -11.4292
174 2 1 -9.13520000000062 5.65940000000046 -11.8292000000001
175 2 1 -8.33519999999953 5.99940000000061 -11.4592000000002
176 2 1 -7.9351999999999 6.01940000000013 -10.6192000000001
177 2 1 -7.53520000000026 6.69940000000042 -10.0892000000003
178 2 1 -6.73519999999917 7.25939999999991 -10.0592000000001
179 2 1 -5.83519999999953 7.5594000000001 -9.95920000000024
180 2 1 -5.03520000000026 6.98940000000039 -9.86920000000009
181 2 1 -5.13520000000062 6.09940000000006 -10.1392000000001
182 2 1 -5.03520000000026 5.50939999999991 -10.8692000000001
183 2 1 -5.23519999999917 5.68940000000021 -11.7791999999999
184 2 1 -5.13520000000062 5.42939999999999 11.2889999999998
185 2 1 -5.73519999999917 5.23940000000039 10.549
186 2 1 -6.73519999999917 5.3094000000001 10.6289999999999
187 2 1 -7.63520000000062 5.57940000000053 10.4589999999998
188 2 1 -8.13520000000062 6.41940000000068 10.3489999999997
189 2 1 -8.9351999999999 6.82940000000053 9.85899999999992
190 2 1 -9.33519999999953 6.27940000000035 9.23900000000003
191 2 1 -9.53520000000026 5.34940000000006 9.16899999999987
192 2 1 -8.9351999999999 4.69940000000042 8.69899999999961
193 2 1 -8.33519999999953 4.19940000000042 8.09899999999971
194 2 1 -7.9351999999999 3.93940000000021 7.279
195 2 1 -7.63520000000062 3.92939999999999 6.33899999999994
196 2 1 -7.4351999999999 4.46939999999995 5.55899999999974
197 2 1 -7.13520000000062 5.28940000000057 5.279
198 2 1 -7.73519999999917 5.84940000000006 4.88899999999967
199 2 1 -8.13520000000062 6.69940000000042 5.08899999999994
200 2 2 -8.73519999999917 7.44940000000042 5.12899999999991
201 3 2 -9.03520000000026 -4.03880000000026 -4.63280000000032
202 3 1 -8.23519999999917 -4.59879999999976 -4.83280000000013
203 3 1 -8.23519999999917 -5.35879999999997 -5.3728000000001
204 3 1 -8.13520000000062 -5.97879999999986 -6.01280000000042
205 3 1 -8.23519999999917 -6.19880000000012 -6.95280000000002
206 3 1 -8.73519999999917 -5.87880000000041 -7.72280000000001
207 3 1 -9.13520000000062 -5.86880000000019 -8.55280000000039
208 3 1 -9.63520000000062 -5.46880000000056 -9.34280000000035
209 3 1 -9.33519999999953 -4.52880000000005 -9.48280000000022
210 3 1 -9.4351999999999 -3.63879999999972 -9.8728000000001
211 3 1 -9.9351999999999 -2.95880000000034 -10.3728000000001
212 3 1 -10.0352000000003 -2.16880000000037 -10.8828000000003
213 3 1 -10.2351999999992 -1.59879999999976 -11.5828000000001
214 3 1 -9.9351999999999 -1.22879999999986 11.5754000000002
215 3 1 -9.73519999999917 -0.668800000000374 10.8054000000002
216 3 1 -9.03520000000026 -1.03880000000026 10.2854000000002
217 3 1 -8.73519999999917 -1.03880000000026 9.44540000000006
218 3 1 -7.9351999999999 -0.87880000000041 8.82540000000017
219 3 1 -7.23519999999917 -0.728799999999865 9.33540000000039
220 3 1 -7.13520000000062 -0.198800000000119 10.1454000000003
221 3 1 -6.53520000000026 -0.468800000000556 10.8154000000004
222 3 1 -6.23519999999917 -0.75880000000052 11.6654000000003
223 3 1 -5.83519999999953 -1.4387999999999 -11.7628000000004
224 3 1 -6.13520000000062 -1.77880000000005 -10.9228000000003
225 3 1 -5.73519999999917 -1.44880000000012 -10.0628000000002
226 3 1 -5.13520000000062 -1.64879999999994 -9.35280000000012
227 3 1 -4.33519999999953 -1.44880000000012 -8.97280000000001
228 3 1 -3.4351999999999 -1.00880000000052 -8.8728000000001
229 3 1 -2.63520000000062 -0.978799999999865 -9.38280000000032
230 3 1 -2.03520000000026 -0.75880000000052 -10.0628000000002
231 3 1 -1.63520000000062 -0.168800000000374 -10.6728000000003
232 3 1 -1.13520000000062 0.68119999999999 -10.5428000000002
233 3 1 -1.63520000000062 1.49119999999948 -10.7528000000002
234 3 1 -2.13520000000062 2.30119999999988 -10.7328000000002
235 3 1 -3.03520000000026 2.54119999999966 -10.4628000000002
236 3 1 -3.73519999999917 2.38119999999981 -9.75280000000021
237 3 1 -3.4351999999999 1.97119999999995 -8.99279999999999
238 3 1 -3.73519999999917 1.55119999999988 -8.18280000000004
239 3 1 -4.03520000000026 1.16119999999955 -7.4028000000003
240 3 1 -3.53520000000026 0.37119999999959 -7.02280000000019
241 3 1 -2.73519999999917 -0.158800000000156 -6.82280000000037
242 3 1 -2.53520000000026 0.511199999999917 -6.19280000000026
243 3 1 -2.13520000000062 0.781199999999444 -5.29280000000017
244 3 1 -2.03520000000026 1.5011999999997 -4.6228000000001
245 3 1 -1.9351999999999 1.84119999999984 -3.71280000000024
246 3 1 -1.9351999999999 1.74119999999948 -2.79280000000017
247 3 1 -2.23519999999917 1.49119999999948 -1.96280000000024
248 3 1 -2.33519999999953 1.30119999999988 -1.00280000000021
249 3 1 -2.53520000000026 0.711199999999735 -0.192800000000261
250 3 1 -2.9351999999999 -0.108799999999974 0.107199999999921
251 3 1 -3.53520000000026 -0.848799999999756 0.397199999999884
252 3 1 -4.4351999999999 -0.81880000000001 0.657199999999648
253 3 1 -5.23519999999917 -0.50880000000052 0.997199999999793
254 3 1 -6.13520000000062 -0.528800000000047 1.3771999999999
255 3 1 -6.9351999999999 -0.478799999999865 0.777199999999993
256 3 1 -7.33519999999953 -0.618800000000192 -0.0528000000003885
257 3 1 -7.4351999999999 -1.15880000000016 -0.832800000000134
258 3 1 -7.83519999999953 -0.938799999999901 -1.64280000000008
259 3 1 -7.03520000000026 -0.948800000000119 -2.17280000000028
260 3 1 -6.23519999999917 -0.768799999999828 -2.63280000000032
261 3 1 -5.53520000000026 -0.868800000000192 -3.1528000000003
262 3 1 -4.73519999999917 -1.03880000000026 -3.70280000000002
263 3 1 -3.73519999999917 -1.17880000000059 -3.74279999999999
264 3 1 -3.23519999999917 -1.92880000000059 -4.11280000000033
265 3 1 -2.73519999999917 -2.50880000000052 -4.76280000000042
266 3 1 -3.53520000000026 -2.90880000000016 -4.42280000000028
267 3 1 -4.33519999999953 -3.48880000000008 -4.44280000000026
268 3 1 -4.23519999999917 -3.98880000000008 -5.24279999999999
269 3 1 -4.53520000000026 -4.58880000000045 -5.92280000000028
270 3 1 -4.33519999999953 -5.2488000000003 -6.54280000000017
271 3 1 -4.63520000000062 -5.90880000000016 -7.1528000000003
272 3 1 -5.4351999999999 -5.92880000000059 -7.76280000000042
273 3 1 -6.03520000000026 -5.23880000000008 -8.09280000000035
274 3 1 -6.83519999999953 -5.66880000000037 -7.9028000000003
275 3 1 -7.73519999999917 -6.19880000000012 -7.93280000000004
276 3 1 -8.13520000000062 -6.67880000000059 -8.60280000000012
277 3 1 -8.83519999999953 -7.09879999999976 -9.16280000000006
278 3 1 -9.53520000000026 -7.62880000000041 -9.6228000000001
279 3 1 -9.9351999999999 -7.34879999999976 -10.4428000000003
280 3 1 -10.5352000000003 -7.65880000000016 -11.0428000000002
281 3 1 -10.3351999999995 -8.50880000000052 -11.3528000000001
282 3 1 -9.73519999999917 -9.26879999999983 -11.3828000000003
283 3 1 -9.63520000000062 -9.70880000000034 11.8154000000004
284 3 1 -9.33519999999953 -10.5488000000005 11.4154000000003
285 3 1 -9.9351999999999 -11.0288 10.9054000000001
286 3 1 -9.9351999999999 -11.5088000000005 10.1054000000004
287 3 1 -10.3351999999995 11.6394 10.1954000000001
288 3 1 -10.8351999999995 10.8894 10.0754000000002
289 3 1 -11.6352000000006 10.4094000000005 9.83540000000039
290 3 1 11.5830000000005 10.1394 9.44540000000006
291 3 1 10.8829999999998 9.74940000000061 8.9054000000001
292 3 1 10.7830000000013 9.37940000000071 8.05540000000019
293 3 1 10.8829999999998 8.58939999999984 7.60540000000037
294 3 1 10.8829999999998 7.87940000000071 6.95540000000028
295 3 1 11.1830000000009 6.95940000000064 6.86540000000014
296 3 1 11.6830000000009 6.21939999999995 6.76540000000023
297 3 1 -11.4351999999999 5.99940000000061 6.73540000000003
298 3 1 -10.7351999999992 6.14940000000024 6.02540000000045
299 3 1 -9.73519999999917 6.01940000000013 5.82540000000017
300 3 2 -9.13520000000062 6.06940000000031 5.12540000000035
301 4 2 5.10119999999915 10.2611999999999 -8.70100000000002
302 4 1 4.30119999999988 9.99119999999948 -8.29100000000017
303 4 1 3.60119999999915 10.6812 -7.90100000000029
304 4 1 3.90119999999843 11.3211999999994 -7.2810000000004
305 4 1 3.80119999999988 -11.9169999999995 -6.721
306 4 1 3.00119999999879 -11.6669999999995 -6.48100000000022
307 4 1 2.10119999999915 -11.9069999999992 -6.81100000000015
308 4 1 1.90119999999843 11.3612000000003 -6.24099999999999
309 4 1 1.40119999999843 11.0212000000001 -5.46100000000024
310 4 1 1.00119999999879 10.4611999999997 -4.83100000000013
311 4 1 0.401199999998425 10.3711999999996 -4.17100000000028
312 4 1 0.201199999999517 10.0911999999998 -3.2810000000004
313 4 1 0.901199999998425 10.0111999999999 -2.65100000000029
314 4 1 1.10119999999915 9.38119999999981 -1.95100000000002
315 4 1 0.501199999998789 9.41119999999955 -1.2810000000004
316 4 1 0.00119999999878928 9.42119999999977 -0.46100000000024
317 4 1 -0.298800000000483 9.29119999999966 0.448999999999614
318 4 1 -0.0988000000015745 8.61120000000028 1.12899999999991
319 4 1 0.301199999999881 7.8112000000001 1.4689999999996
320 4 1 0.301199999999881 6.89120000000003 1.66899999999987
321 4 1 1.00119999999879 6.88119999999981 2.35899999999992
322 4 1 1.60119999999915 6.32119999999941 2.75900000000001
323 4 1 2.10119999999915 6.82119999999941 3.45899999999983
324 4 1 1.90119999999843 7.60120000000006 3.94899999999961
325 4 1 1.40119999999843 8.05119999999988 4.779
326 4 1 2.10119999999915 7.82119999999941 5.37899999999991
327 4 1 3.10119999999915 7.59119999999984 5.13899999999967
328 4 1 4.00119999999879 7.74119999999948 4.88899999999967
329 4 1 4.50119999999879 7.08119999999963 5.29899999999998
330 4 1 4.70119999999952 6.3112000000001 5.84899999999971
331 4 1 5.00119999999879 5.43119999999999 5.98900000000003
332 4 1 5.30119999999988 4.53119999999944 6.16899999999987
333 4 1 5.40119999999843 3.61120000000028 6.279
334 4 1 6.10119999999915 3.17119999999977 5.80899999999974
335 4 1 6.80119999999988 3.5011999999997 5.29899999999998
336 4 1 7.70119999999952 3.43119999999999 5.54899999999998
337 4 1 8.40119999999843 3.73120000000017 6.14899999999989
338 4 1 8.60119999999915 3.90120000000024 7.03899999999976
339 4 1 9.10119999999915 3.43119999999999 7.7189999999996
340 4 1 9.90119999999843 2.79119999999966 7.83899999999994
341 4 1 10.1011999999992 2.10120000000006 8.4689999999996
342 4 1 10.9011999999984 1.89120000000003 8.78899999999976
343 4 1 11.5011999999988 1.44120000000021 9.39899999999989
344 4 1 11.7011999999995 1.14120000000003 10.2489999999998
345 4 1 11.8011999999999 1.23120000000017 11.1889999999999
346 4 1 11.6011999999992 0.74119999999948 11.9489999999996
347 4 1 10.8011999999999 0.281199999999444 -11.9692
348 4 1 10.3011999999999 -0.488800000000083 -11.4892
349 4 1 9.90119999999843 -1.03880000000026 -10.8292000000001
350 4 1 9.70119999999952 -1.98880000000008 -10.7791999999999
351 4 1 9.50119999999879 -2.9387999999999 -10.8292000000001
352 4 1 9.30119999999988 -3.86880000000019 -10.9892
353 4 1 8.50119999999879 -4.4387999999999 -11.1192000000001
354 4 1 8.00119999999879 -5.15880000000016 -11.4992000000002
355 4 1 7.20119999999952 -5.33880000000045 11.9289999999996
356 4 1 6.40119999999843 -4.95880000000034 11.4389999999999
357 4 1 5.60119999999915 -4.40880000000016 11.2489999999998
358 4 1 5.10119999999915 -3.72879999999986 11.6089999999999
359 4 1 4.40119999999843 -2.9988000000003 11.799
360 4 1 4.00119999999879 -2.32880000000023 11.2189999999996
361 4 1 3.20119999999952 -1.71880000000056 11.2689999999998
362 4 1 2.30119999999988 -1.4387999999999 11.4989999999998
363 4 1 2.20119999999952 -0.708800000000338 -11.8892000000001
364 4 1 2.50119999999879 -0.0688000000000102 -11.2192
365 4 1 2.40119999999843 0.421199999999772 -10.3892000000001
366 4 1 2.70119999999952 0.781199999999444 -9.54920000000038
367 4 1 3.10119999999915 0.791199999999662 -8.65920000000006
368 4 1 3.50119999999879 1.0011999999997 -7.85920000000033
369 4 1 3.80119999999988 1.7511999999997 -7.32920000000013
370 4 1 3.00119999999879 1.78119999999944 -6.81920000000036
371 4 1 2.10119999999915 1.61120000000028 -7.00919999999996
372 4 1 1.60119999999915 0.93119999999999 -7.47920000000022
373 4 1 0.901199999998425 0.411199999999553 -7.85920000000033
374 4 1 -0.0988000000015745 0.401200000000244 -8.11920000000009
375 4 1 -0.998800000001211 0.571199999999408 -7.88920000000007
376 4 1 -0.798800000000483 1.29119999999966 -7.30920000000015
377 4 1 -0.998800000001211 1.94120000000021 -6.63920000000007
378 4 1 -0.398800000000847 1.66119999999955 -5.92920000000004
379 4 1 -0.398800000000847 0.751199999999699 -6.09920000000011
380 4 1 -0.198800000000119 -0.148799999999937 -5.98919999999998
381 4 1 0.301199999999881 -0.858799999999974 -5.68920000000026
382 4 1 0.601199999999153 -1.71880000000056 -6.02919999999995
383 4 1 0.601199999999153 -2.65880000000016 -6.17920000000004
384 4 1 1.30119999999988 -3.40880000000016 -6.31920000000036
385 4 1 2.00119999999879 -3.06880000000001 -5.77919999999995
386 4 1 3.00119999999879 -2.89879999999994 -5.68920000000026
387 4 1 3.70119999999952 -2.25880000000052 -5.67920000000004
388 4 1 4.30119999999988 -1.79880000000048 -6.15920000000006
389 4 1 5.10119999999915 -1.4387999999999 -6.58920000000035
390 4 1 5.90119999999843 -0.908800000000156 -6.7192
391 4 1 6.80119999999988 -1.22879999999986 -6.68920000000026
392 4 1 7.70119999999952 -1.52880000000005 -6.72920000000022
393 4 1 8.50119999999879 -1.61880000000019 -6.16920000000027
394 4 1 9.20119999999952 -2.21880000000056 -6.17920000000004
395 4 1 9.60119999999915 -2.31880000000001 -6.98919999999998
396 4 1 9.50119999999879 -1.82880000000023 -7.78920000000016
397 4 1 9.00119999999879 -2.4387999999999 -8.29920000000038
398 4 1 8.30119999999988 -3.09879999999976 -8.54920000000038
399 4 1 7.30119999999988 -3.26879999999983 -8.55920000000015
400 4 2 6.30119999999988 -3.33880000000045 -8.83920000000035
401 5 2 -10.4169999999995 -6.34059999999954 -4.07920000000013
402 5 1 -9.41699999999946 -6.09059999999954 -4.17920000000004
403 5 1 -8.51699999999983 -5.87059999999929 -3.97920000000022
404 5 1 -8.01699999999983 -5.20060000000012 -3.57920000000013
405 5 1 -7.11700000000019 -4.92059999999947 -3.14920000000029
406 5 1 -6.3169999999991 -5.01059999999961 -2.7192
407 5 1 -5.61700000000019 -4.34059999999954 -3.04920000000038
408 5 1 -5.21699999999873 -4.22059999999965 -3.9692
409 5 1 -5.21699999999873 -4.11059999999998 -4.94920000000002
410 5 1 -5.11700000000019 -3.77059999999983 -5.82920000000013
411 5 1 -5.01699999999983 -2.90059999999994 -6.04920000000038
412 5 1 -4.61700000000019 -2.21059999999943 -6.57920000000013
413 5 1 -4.3169999999991 -1.40059999999994 -7.01920000000018
414 5 1 -4.71699999999873 -0.480599999999868 -7.13920000000007
415 5 1 -4.71699999999873 0.479400000000169 -7.29920000000038
416 5 1 -5.21699999999873 1.06940000000031 -7.91920000000027
417 5 1 -4.61700000000019 1.41940000000068 -8.58920000000035
418 5 1 -4.01699999999983 1.03940000000057 -9.15920000000006
419 5 1 -4.01699999999983 0.639400000000023 -10.0492000000004
420 5 1 -4.71699999999873 1.03940000000057 -10.5192000000002
421 5 1 -4.91699999999946 1.96939999999995 -10.3692000000001
422 5 1 -5.11700000000019 2.3694000000005 -11.1892000000003
423 5 1 -5.11700000000019 2.44940000000042 11.8989999999999
424 5 1 -5.61700000000019 2.53940000000057 11.0889999999999
425 5 1 -5.91699999999946 2.51940000000013 10.1189999999997
426 5 1 -5.61700000000019 1.89940000000024 9.37899999999991
427 5 1 -5.71699999999873 0.90940000000046 9.45899999999983
428 5 1 -5.71699999999873 0.0493999999998778 9.09899999999971
429 5 1 -5.71699999999873 -0.820600000000013 8.7489999999998
430 5 1 -5.71699999999873 -1.80059999999958 8.51899999999978
431 5 1 -6.3169999999991 -2.33059999999932 8.06899999999996
432 5 1 -7.11700000000019 -2.35059999999976 7.48900000000003
433 5 1 -7.8169999999991 -2.81059999999979 7.05899999999974
434 5 1 -8.61700000000019 -3.26059999999961 6.91899999999987
435 5 1 -9.11700000000019 -3.65059999999994 7.65899999999965
436 5 1 -9.61700000000019 -4.50059999999939 7.60899999999992
437 5 1 -9.21699999999873 -5.35059999999976 7.279
438 5 1 -9.01699999999983 -6.35059999999976 7.33899999999994
439 5 1 -8.11700000000019 -6.68059999999969 7.40899999999965
440 5 1 -7.71699999999873 -7.50059999999939 7.73900000000003
441 5 1 -6.91699999999946 -7.91060000000016 7.60899999999992
442 5 1 -6.01699999999983 -8.23059999999987 7.80899999999974
443 5 1 -5.21699999999873 -8.4405999999999 8.19899999999961
444 5 1 -4.61700000000019 -8.87059999999929 8.90899999999965
445 5 1 -4.51699999999983 -9.55059999999958 9.51899999999978
446 5 1 -4.8169999999991 -10.3805999999995 9.92899999999963
447 5 1 -5.61700000000019 -10.8505999999998 10.1189999999997
448 5 1 -6.41699999999946 -11.4305999999997 10.509
449 5 1 -6.91699999999946 11.7075999999997 10.5189999999998
450 5 1 -7.51699999999983 10.9575999999997 10.4489999999996
451 5 1 -8.11700000000019 10.2975999999999 10.8689999999997
452 5 1 -8.21699999999873 9.61759999999958 11.4289999999996
453 5 1 -8.01699999999983 9.55760000000009 -11.7092000000002
454 5 1 -7.8169999999991 9.8775999999998 -10.7592
455 5 1 -8.21699999999873 10.5675999999994 -10.1892000000003
456 5 1 -7.8169999999991 11.0176000000001 -9.47920000000022
457 5 1 -6.91699999999946 11.4776000000002 -9.4692
458 5 1 -6.21699999999873 -11.9005999999999 -9.35920000000033
459 5 1 -5.3169999999991 -11.8805999999995 -9.59920000000011
460 5 1 -4.61700000000019 -11.5805999999993 -10.1692000000003
461 5 1 -4.21699999999873 -11.7205999999996 -10.9692
462 5 1 -4.11700000000019 11.4975999999997 -11.4992000000002
463 5 1 -4.51699999999983 10.6476000000002 -11.6492000000003
464 5 1 -4.21699999999873 9.73759999999947 -11.5492000000004
465 5 1 -3.3169999999991 9.41759999999977 -11.4092000000001
466 5 1 -2.91699999999946 10.0775999999996 -11.9092000000001
467 5 1 -2.41699999999946 10.6675999999998 -11.3692000000001
468 5 1 -1.8169999999991 11.3876 -11.3792000000003
469 5 1 -1.01699999999983 11.9475999999995 -11.3692000000001
470 5 1 -1.71699999999873 -11.8905999999997 -10.6592000000001
471 5 1 -2.41699999999946 -12.0005999999994 -10.0492000000004
472 5 1 -3.21699999999873 -11.4005999999999 -10.2192
473 5 1 -3.8169999999991 -10.7806 -10.2992000000004
474 5 1 -3.91699999999946 -9.83059999999932 -10.1292000000003
475 5 1 -4.8169999999991 -9.72059999999965 -10.1692000000003
476 5 1 -5.61700000000019 -9.91060000000016 -9.62920000000031
477 5 1 -6.41699999999946 -10.1606000000002 -9.12920000000031
478 5 1 -6.8169999999991 -11.0005999999994 -9.07920000000013
479 5 1 -7.51699999999983 -11.5805999999993 -9.20920000000024
480 5 1 -8.3169999999991 -11.1405999999997 -8.81920000000036
481 5 1 -8.8169999999991 -10.6005999999998 -8.36920000000009
482 5 1 -9.41699999999946 -10.2806 -7.68920000000026
483 5 1 -9.11700000000019 -10.0405999999994 -6.78920000000016
484 5 1 -8.51699999999983 -9.62059999999929 -6.13920000000007
485 5 1 -8.21699999999873 -9.37059999999929 -5.23919999999998
486 5 1 -7.8169999999991 -8.95060000000012 -4.42920000000004
487 5 1 -7.61700000000019 -8.80059999999958 -3.52919999999995
488 5 1 -7.3169999999991 -8.56059999999979 -2.62920000000031
489 5 1 -7.8169999999991 -8.1905999999999 -1.84920000000011
490 5 1 -8.21699999999873 -7.66060000000016 -1.17920000000004
491 5 1 -8.8169999999991 -7.95060000000012 -1.92920000000004
492 5 1 -9.51699999999983 -8.43059999999969 -2.26920000000018
493 5 1 -10.1170000000002 -9.20060000000012 -2.28920000000016
494 5 1 -10.4169999999995 -9.90059999999994 -2.83920000000035
495 5 1 -10.4169999999995 -10.6905999999999 -3.41920000000027
496 5 1 -10.1170000000002 -11.3005999999996 -4.12920000000031
497 5 1 -9.11700000000019 -11.5605999999998 -4.23919999999998
498 5 1 -8.3169999999991 -11.8705999999993 -3.94920000000002
499 5 1 -7.8169999999991 -11.9305999999997 -3.19920000000002
500 5 2 -7.21699999999873 -11.6505999999999 -2.51920000000018