ITEM: TIMESTEP
1
ITEM: NUMBER OF ATOMS
104400
ITEM: BOX BOUNDS pp pp pp
-24.8541 24.8541
-24.8541 24.8541
-24.8541 24.8541
ITEM: ATOMS id mol type x y z
1 1 2 -18.6845 7.67541 -5.9786
2 1 1 -18.7661 7.78772 -6.9336
3 1 1 -18.8915 8.05525 -7.8006
4 1 1 -18.8308 8.36728 -8.74860000000001
5 1 1 -18.499 8.45678 -9.63160000000001
6 1 1 -18.3292 8.83538 -10.4816
7 1 1 -18.1925 8.86055 -11.6396
8 1 1 -18.0867 8.33833 -12.4886
9 1 1 -18.0714 8.25657 -13.4976
10 1 1 -18.1134 8.18677 -14.4716
11 1 1 -18.1673 8.18701 -15.4196
12 1 1 -18.1322 7.98384 -16.3606
13 1 1 -18.1726 8.41786 -17.2336
14 1 1 -18.2545 8.11823 -18.1776
15 1 1 -18.7556 8.23668 -19.0526
16 1 1 -18.9673 8.61095 -20.0186
17 1 1 -19.1255 8.9477 -20.9526
18 1 1 -19.7235 8.8349 -21.7416
19 1 1 -19.6113 8.62119 -22.6786
20 1 1 -19.6783 8.75203 -23.7456
21 1 1 -19.8437 8.88832 -24.6876
22 1 1 -19.9302 8.83059 24.0916
23 1 1 -20.0736 8.78631 23.1826
24 1 1 -20.118 8.73007 22.1796
25 1 1 -20.2641 8.82702 21.1706
26 1 1 -20.1127 8.86063 20.2766
27 1 1 -19.7505 8.68081 19.3126
28 1 1 -20.2743 9.05272 18.6496
29 1 1 -20.4711 9.03371 17.7336
30 1 1 -20.538 8.67001 16.9006
31 1 1 -20.4837 8.19899 16.0816
32 1 1 -20.2642 7.76406 15.1846
33 1 1 -19.9834 7.70918 14.3166
34 1 1 -19.5713 7.59083 13.3876
35 1 1 -19.5985 7.50262 12.3846
36 1 1 -19.6117 7.45346 11.4736
37 1 1 -19.4596 7.53022 10.5196
38 1 1 -18.9347 7.59576 9.76259999999999
39 1 1 -18.4763 7.73572 8.89159999999998
40 1 1 -17.9798 7.64498 8.03459999999998
41 1 1 -17.7304 7.77431 7.1216
42 1 1 -17.2066 7.87333 6.34059999999999
43 1 1 -17.1898 7.60259 5.39259999999999
44 1 1 -17.3701 7.40281 4.51759999999999
45 1 1 -17.519 7.12833 3.60459999999998
46 1 1 -17.5833 7.26138 2.6216
47 1 1 -17.4421 7.1668 1.70959999999999
48 1 1 -17.3505 6.98116 0.82759999999999
49 1 1 -17.2669 6.9332 -0.212400000000002
50 1 1 -16.968 7.02523 -1.17340000000002
51 1 1 -16.6063 7.05638 -2.0454
52 1 1 -16.5527 6.94831 -2.9984
53 1 1 -16.5612 6.97196 -3.98740000000001
54 1 1 -16.7209 6.9538 -4.93340000000001
55 1 1 -16.7236 6.85546 -5.9324
56 1 1 -16.7627 6.77521 -6.82640000000001
57 1 1 -16.8334 6.43748 -7.7604
58 1 1 -16.9479 6.08593 -8.75040000000001
59 1 1 -17.1512 5.81063 -9.59740000000002
60 1 1 -17.1122 5.73789 -10.5634
61 1 1 -16.8967 5.41342 -11.4444
62 1 1 -16.9419 5.42694 -12.3924
63 1 1 -17.0957 5.21799 -13.2714
64 1 1 -16.867 4.95931 -14.1564
65 1 1 -16.8852 4.79331 -15.0974
66 1 1 -17.1359 4.76812 -16.0324
67 1 1 -17.2692 4.4917 -16.9444
68 1 1 -17.7493 4.14303 -17.6314
69 1 1 -18.2044 3.76718 -18.4524
70 1 1 -18.1423 3.48289 -19.3764
71 1 1 -18.2231 3.19782 -20.2604
72 1 1 -18.3239 3.19074 -21.2004
73 1 1 -18.3653 2.93899 -22.1754
74 1 1 -18.5625 2.89385 -23.1794
75 1 1 -18.5655 2.91625 -24.0984
76 1 1 -18.7306 2.94454 24.7068
77 1 1 -18.7545 3.04118 23.6948
78 1 1 -18.8633 3.19136 22.7238
79 1 1 -19.3088 3.11875 21.8678
80 1 1 -19.2294 2.83419 20.9808
81 1 1 -19.3181 2.70076 20.0758
82 1 1 -19.2506 2.4823 19.1178
83 1 1 -19.5475 2.22579 18.1678
84 1 1 -19.4086 1.99533 17.2538
85 1 1 -19.5105 1.83249 16.3628
86 1 1 -19.72 1.54824 15.4608
87 1 1 -19.8047 1.36794 14.4928
88 1 1 -19.919 1.33355 13.4978
89 1 1 -19.5742 1.11428 12.5128
90 1 1 -19.0058 0.894196 11.7268
91 1 1 -18.9595 0.841179 10.7878
92 1 1 -19.0291 0.726657 9.84979999999999
93 1 1 -19.2551 0.521421 8.93779999999998
94 1 1 -19.798 0.230404 8.17679999999999
95 1 1 -20.0948 -0.0723352 7.29679999999999
96 1 1 -20.2431 0.00827632 6.3058
97 1 1 -20.0114 0.17161 5.38579999999999
98 1 1 -19.9942 0.228682 4.3818
99 1 1 -20.1464 0.366456 3.4298
100 1 2 -20.001 0.594447 2.53279999999998
101 2 2 13.8903 -24.0937 19.3502
102 2 1 13.7047 -24.1292 20.2336
103 2 1 13.5465 -24.4096 21.2076
104 2 1 13.2898 -23.9748 22.0557
105 2 1 13.2625 -23.884 23.1524
106 2 1 13.0245 -23.6724 24.0875
107 2 1 12.7614 -23.9422 -24.6997
108 2 1 12.2332 -24.1855 -23.918
109 2 1 12.0427 -24.6374 -23.1346
110 2 1 12.2385 24.8166 -22.2067
111 2 1 11.7803 24.5299 -21.3237
112 2 1 11.6046 24.2989 -20.4276
113 2 1 11.6137 24.0304 -19.5654
114 2 1 11.8566 23.694 -18.6885
115 2 1 11.6646 23.2744 -17.8343
116 2 1 11.8538 23.073 -16.9894
117 2 1 11.8485 23.223 -16.0465
118 2 1 12.1361 22.8356 -15.227
119 2 1 12.0987 22.1906 -14.4386
120 2 1 12.1842 22.206 -13.5108
121 2 1 12.0281 21.9677 -12.519
122 2 1 11.9072 21.6651 -11.6235
123 2 1 11.3656 21.3846 -10.8911
124 2 1 11.354 21.254 -9.875
125 2 1 11.5135 20.9446 -8.96559999999999
126 2 1 11.726 20.6748 -8.1162
127 2 1 11.7634 20.5722 -7.1749
128 2 1 11.6944 20.2328 -6.2064
129 2 1 11.7911 20.0686 -5.3107
130 2 1 12.0154 19.9625 -4.3684
131 2 1 12.1316 19.9654 -3.3631
132 2 1 12.2081 19.9351 -2.3561
133 2 1 12.2269 19.8107 -1.3836
134 2 1 12.2334 19.4154 -0.5625
135 2 1 12.104 19.2739 0.4146
136 2 1 11.8844 18.986 1.3421
137 2 1 11.9488 18.6779 2.2213
138 2 1 11.8631 18.7663 3.1492
139 2 1 12.0257 18.7516 4.081
140 2 1 11.9125 18.6401 5.0371
141 2 1 11.9634 18.6254 6.0089
142 2 1 11.6391 18.5807 6.90620000000001
143 2 1 11.4568 18.3679 7.9213
144 2 1 11.5026 18.2126 8.8081
145 2 1 11.4676 17.7945 9.7052
146 2 1 11.5789 17.4057 10.5725
147 2 1 11.3953 17.2282 11.5325
148 2 1 11.6055 16.8966 12.4849
149 2 1 11.6309 16.6723 13.4489
150 2 1 11.7714 16.7844 14.3945
151 2 1 11.7812 16.7505 15.4152
152 2 1 12.0426 16.6603 16.2766
153 2 1 12.4474 16.9072 17.1297
154 2 1 12.4971 16.9189 18.1247
155 2 1 12.2945 16.7691 19.0644
156 2 1 11.9895 16.5481 19.9129
157 2 1 11.6137 16.6033 20.7489
158 2 1 11.3469 16.6618 21.6812
159 2 1 11.1728 16.6841 22.6115
160 2 1 11.1929 16.6464 23.5799
161 2 1 11.332 16.651 24.5491
162 2 1 11.5757 16.7116 -24.2333
163 2 1 11.9285 16.9137 -23.3988
164 2 1 11.9725 17.0395 -22.4628
165 2 1 12.2147 17.1931 -21.6031
166 2 1 12.4637 17.4672 -20.7558
167 2 1 12.997 17.7539 -19.9544
168 2 1 13.2502 17.8084 -19.086
169 2 1 13.4929 18.058 -18.1372
170 2 1 13.8758 18.1563 -17.3231
171 2 1 14.1204 18.2482 -16.4421
172 2 1 14.2218 18.224 -15.4475
173 2 1 14.2251 18.1568 -14.4879
174 2 1 14.3219 17.8283 -13.6265
175 2 1 14.3939 17.7553 -12.6538
176 2 1 14.4289 17.866 -11.6631
177 2 1 14.6209 18.1714 -10.6792
178 2 1 14.955 18.0686 -9.7671
179 2 1 15.006 17.648 -8.9019
180 2 1 15.0948 17.4653 -7.89999999999999
181 2 1 15.2991 17.2531 -7.0219
182 2 1 15.3173 17.0085 -6.1267
183 2 1 15.3398 17.1339 -5.16109999999999
184 2 1 15.125 16.9275 -4.2811
185 2 1 14.9683 16.8128 -3.3398
186 2 1 15.4715 16.7889 -2.50839999999999
187 2 1 15.591 16.6122 -1.4439
188 2 1 15.7443 16.6937 -0.462899999999991
189 2 1 15.8015 16.5945 0.559600000000003
190 2 1 15.8424 16.4724 1.5436
191 2 1 16.0677 16.3054 2.49460000000001
192 2 1 16.4674 15.9004 3.28960000000001
193 2 1 16.75 15.5865 4.1686
194 2 1 16.3615 15.5802 5.0236
195 2 1 16.3251 15.8653 5.9366
196 2 1 16.4922 16.0747 6.9166
197 2 1 16.5413 16.2766 7.89660000000001
198 2 1 16.8365 16.4364 8.74260000000001
199 2 1 16.9028 16.5436 9.6866
200 2 2 16.9931 16.7497 10.7086
201 3 2 -6.5421 19.614 8.55959999999999
202 3 1 -6.5384 19.8673 9.47459999999998
203 3 1 -6.1652 19.7721 10.3436
204 3 1 -5.87419999999999 19.6134 11.2466
205 3 1 -5.7112 19.6245 12.2596
206 3 1 -5.6931 19.4158 13.1346
207 3 1 -5.2776 19.3315 14.0366
208 3 1 -4.8991 19.4547 14.8876
209 3 1 -4.57239999999999 19.3593 15.8666
210 3 1 -4.1285 18.9972 16.5846
211 3 1 -3.9784 19.0021 17.5476
212 3 1 -4.0999 18.9351 18.4726
213 3 1 -3.8533 18.6689 19.3766
214 3 1 -3.9558 18.4297 20.2786
215 3 1 -3.9402 18.3613 21.2196
216 3 1 -3.8058 17.8979 22.0856
217 3 1 -3.5926 17.8802 22.9376
218 3 1 -3.4619 17.6896 23.9566
219 3 1 -3.14709999999999 17.7358 24.7866
220 3 1 -2.95339999999999 17.9147 -23.9656
221 3 1 -2.767 18.0186 -23.0296
222 3 1 -2.8535 18.0348 -22.0696
223 3 1 -2.7887 18.2575 -21.0406
224 3 1 -2.8741 18.4534 -20.0436
225 3 1 -2.7594 18.4262 -19.0576
226 3 1 -2.58309999999999 18.5939 -18.1276
227 3 1 -2.2545 18.6019 -17.2386
228 3 1 -2.0229 18.6992 -16.3296
229 3 1 -1.8973 18.7871 -15.3166
230 3 1 -2.0483 18.7665 -14.2546
231 3 1 -2.2574 18.5577 -13.3636
232 3 1 -2.4288 18.376 -12.3826
233 3 1 -2.4617 18.0785 -11.4066
234 3 1 -2.0764 18.0174 -10.4876
235 3 1 -1.773 17.6914 -9.7046
236 3 1 -1.4753 17.723 -8.80160000000001
237 3 1 -1.5547 17.4322 -7.9526
238 3 1 -1.3446 17.2384 -7.01660000000001
239 3 1 -1.3258 16.758 -6.1896
240 3 1 -1.3193 16.3977 -5.2946
241 3 1 -1.2667 16.319 -4.38160000000001
242 3 1 -1.2117 16.0975 -3.4436
243 3 1 -1.0629 15.9001 -2.4516
244 3 1 -0.894599999999997 15.9957 -1.36760000000001
245 3 1 -0.666399999999996 16.0551 -0.410899999999998
246 3 1 -0.539899999999996 16.0364 0.520799999999994
247 3 1 -0.690199999999997 15.9612 1.54859999999999
248 3 1 -0.817999999999998 15.7139 2.4366
249 3 1 -0.777200000000001 15.4057 3.3068
250 3 1 -1.0629 15.0839 4.18249999999999
251 3 1 -1.1438 14.8 5.1147
252 3 1 -1.1793 14.6091 6.1579
253 3 1 -1.3976 14.6968 7.1164
254 3 1 -1.7689 14.7337 8.0085
255 3 1 -2.05 14.764 8.94059999999999
256 3 1 -2.0503 14.7324 10.025
257 3 1 -2.0431 14.566 11.0286
258 3 1 -2.222 14.3345 11.9929
259 3 1 -2.405 14.4414 12.9217
260 3 1 -2.6094 14.3093 13.8856
261 3 1 -2.7095 14.1869 14.8569
262 3 1 -2.8952 14.635 15.6729
263 3 1 -3.0457 14.5612 16.5887
264 3 1 -3.3016 14.366 17.4978
265 3 1 -3.2784 14.2965 18.4718
266 3 1 -3.1251 14.022 19.4483
267 3 1 -3.1137 13.9372 20.4135
268 3 1 -2.7255 13.624 21.2221
269 3 1 -2.2742 13.5097 22.1737
270 3 1 -2.144 13.3878 23.0927
271 3 1 -2.0377 13.368 24.0466
272 3 1 -1.78129999999999 13.0327 -24.7821
273 3 1 -1.3344 13.1017 -23.8615
274 3 1 -1.1368 13.0268 -22.8607
275 3 1 -0.969200000000001 12.7043 -21.9818
276 3 1 -0.847499999999997 12.2216 -21.1732
277 3 1 -0.687399999999997 11.9337 -20.2324
278 3 1 -0.105699999999999 11.9312 -19.4477
279 3 1 0.0396000000000001 11.8858 -18.522
280 3 1 0.194200000000002 11.8069 -17.5913
281 3 1 0.440600000000003 11.4997 -16.5992
282 3 1 0.753399999999999 11.8325 -15.7658
283 3 1 0.9208 11.7845 -14.8108
284 3 1 0.750900000000001 11.6414 -13.9014
285 3 1 0.691200000000002 11.5893 -12.9827
286 3 1 0.7607 11.514 -12.0267
287 3 1 0.865300000000005 11.5637 -11.0371
288 3 1 0.786900000000003 11.7175 -10.0978
289 3 1 0.923500000000004 11.6906 -9.1357
290 3 1 0.8626 11.7629 -8.15620000000001
291 3 1 0.856400000000001 11.8162 -7.24010000000001
292 3 1 0.787500000000001 11.6925 -6.27670000000001
293 3 1 0.869900000000001 11.4878 -5.3194
294 3 1 0.928899999999999 11.076 -4.4299
295 3 1 1.5975 10.9011 -3.6412
296 3 1 1.5395 10.6145 -2.7269
297 3 1 1.3945 10.3379 -1.7985
298 3 1 1.4596 10.4045 -0.790900000000001
299 3 1 1.5431 10.2126 0.146799999999999
300 3 2 1.7036 10.0673 1.1636
301 4 2 -5.9791 -16.0241 -6.11041
302 4 1 -6.02070000000001 -16.2222 -5.12395
303 4 1 -5.9673 -16.6523 -4.16507
304 4 1 -5.9415 -16.4775 -3.25815
305 4 1 -6.0774 -16.323 -2.29764
306 4 1 -6.0136 -15.9966 -1.29669
307 4 1 -5.698 -15.7548 -0.36582
308 4 1 -5.5839 -15.6352 0.59611
309 4 1 -5.3226 -15.7744 1.50108
310 4 1 -4.9689 -15.6901 2.41734
311 4 1 -4.5706 -15.4544 3.27808
312 4 1 -4.6446 -15.3185 4.24903
313 4 1 -4.7092 -15.2549 5.23993
314 4 1 -4.7781 -15.4656 6.24333
315 4 1 -4.8568 -15.7592 7.15166
316 4 1 -4.584 -16.0212 8.02005
317 4 1 -4.672 -15.8458 8.95459
318 4 1 -4.7072 -15.9415 9.99827
319 4 1 -4.7265 -16.103 10.906
320 4 1 -4.8008 -16.3102 11.9813
321 4 1 -4.7733 -16.1147 12.8397
322 4 1 -4.4517 -15.8682 13.7609
323 4 1 -4.1086 -16.025 14.6475
324 4 1 -4.1317 -15.9552 15.6638
325 4 1 -3.6833 -15.8536 16.4255
326 4 1 -3.7078 -15.6121 17.4022
327 4 1 -3.5823 -15.5637 18.372
328 4 1 -3.2719 -15.6323 19.2767
329 4 1 -2.9256 -15.6773 20.1969
330 4 1 -2.6378 -15.4818 21.182
331 4 1 -2.4244 -15.3356 22.0518
332 4 1 -2.3616 -15.3192 22.9583
333 4 1 -2.2459 -15.263 23.9072
334 4 1 -2.2382 -15.267 -24.8093
335 4 1 -1.8378 -15.1771 -24.0356
336 4 1 -1.7771 -14.9888 -23.1044
337 4 1 -1.6322 -15.1249 -22.1583
338 4 1 -1.4103 -15.3207 -21.117
339 4 1 -1.081 -15.3029 -20.2573
340 4 1 -1.1565 -15.6536 -19.2846
341 4 1 -1.1916 -15.6336 -18.3175
342 4 1 -1.2196 -15.6841 -17.3329
343 4 1 -1.4468 -15.9458 -16.431
344 4 1 -1.7649 -15.8338 -15.5434
345 4 1 -2.0352 -15.8128 -14.5995
346 4 1 -2.0902 -15.5899 -13.5614
347 4 1 -2.0978 -15.3855 -12.5653
348 4 1 -2.1725 -15.1715 -11.527
349 4 1 -2.1442 -14.8929 -10.5631
350 4 1 -2.2263 -14.9289 -9.6399
351 4 1 -1.9088 -15.0853 -8.7818
352 4 1 -1.5935 -15.1111 -7.8663
353 4 1 -1.6109 -15.2254 -6.9766
354 4 1 -1.3721 -15.3148 -6.0108
355 4 1 -0.792500000000004 -15.3857 -5.1716
356 4 1 -0.0594999999999999 -15.268 -4.3968
357 4 1 0.311299999999996 -15.3928 -3.5044
358 4 1 0.640499999999996 -15.3032 -2.4865
359 4 1 0.543199999999999 -15.1555 -1.4893
360 4 1 0.747699999999995 -15.1827 -0.617799999999995
361 4 1 0.759699999999995 -15.3771 0.346000000000004
362 4 1 0.925799999999995 -15.601 1.2178
363 4 1 0.702099999999994 -15.5815 2.18510000000001
364 4 1 0.5441 -15.5359 3.11980000000001
365 4 1 0.709299999999999 -15.4449 4.039
366 4 1 1.096 -14.9984 4.8538
367 4 1 1.4288 -14.952 5.7637
368 4 1 1.6478 -14.883 6.7037
369 4 1 1.758 -14.9267 7.7158
370 4 1 1.94739999999999 -15.0302 8.6529
371 4 1 1.969 -15.0224 9.65020000000001
372 4 1 2.0597 -15.1535 10.6154
373 4 1 2.1756 -15.3956 11.4757
374 4 1 2.4405 -15.7363 12.4836
375 4 1 2.488 -15.9607 13.391
376 4 1 2.4201 -16.1167 14.2762
377 4 1 2.4248 -16.3053 15.2698
378 4 1 2.3657 -16.943 16.1677
379 4 1 2.4875 -17.5759 16.9073
380 4 1 2.4989 -18.1436 17.6908
381 4 1 2.9988 -18.2325 18.648
382 4 1 3.18369999999999 -18.5337 19.5281
383 4 1 3.1218 -18.4744 20.4846
384 4 1 2.9173 -18.3672 21.3665
385 4 1 2.8238 -18.1363 22.3646
386 4 1 2.9052 -17.9723 23.3422
387 4 1 3.21709999999999 -17.6614 24.2064
388 4 1 3.5286 -17.4268 -24.5464
389 4 1 3.4239 -17.0139 -23.5928
390 4 1 3.4357 -17.0459 -22.6497
391 4 1 3.5042 -16.8544 -21.747
392 4 1 3.7344 -16.7611 -20.8301
393 4 1 3.2823 -16.5642 -19.9098
394 4 1 3.1423 -16.6205 -18.9594
395 4 1 3.207 -16.675 -17.9879
396 4 1 3.4319 -16.6335 -17.0574
397 4 1 3.5219 -16.5105 -16.114
398 4 1 3.6073 -16.5703 -15.1319
399 4 1 3.2876 -16.6845 -14.2403
400 4 2 3.00839999999999 -16.2999 -13.4333
401 5 2 -4.59414 -20.9116 10.6524
402 5 1 -4.8796 -20.8606 9.7593
403 5 1 -5.23629 -20.8273 8.9353
404 5 1 -5.49802 -20.7324 7.9858
405 5 1 -5.5083 -20.8333 6.9743
406 5 1 -5.48936 -20.9326 6.011
407 5 1 -5.47002 -20.7721 5.04679999999999
408 5 1 -5.41103 -20.6163 4.02579999999999
409 5 1 -5.41329 -20.55 3.13879999999999
410 5 1 -5.32213 -20.4892 2.1099
411 5 1 -5.17223 -20.26 1.09169999999999
412 5 1 -5.25095 -20.0162 0.118799999999993
413 5 1 -5.33286 -19.92 -0.827600000000004
414 5 1 -5.408 -20.1209 -1.76260000000001
415 5 1 -5.23638 -20.2062 -2.75360000000001
416 5 1 -5.29096 -20.0954 -3.7196
417 5 1 -5.38976 -20.4116 -4.6096
418 5 1 -5.59123 -20.6467 -5.5566
419 5 1 -5.8526 -20.8847 -6.4166
420 5 1 -6.04558 -20.7375 -7.32560000000001
421 5 1 -6.17465 -20.7263 -8.2966
422 5 1 -6.30741 -20.7827 -9.28360000000001
423 5 1 -6.07454 -20.7832 -10.1566
424 5 1 -5.75964 -21.0101 -11.0416
425 5 1 -5.34884 -20.7766 -11.8516
426 5 1 -5.37709 -20.6472 -12.8416
427 5 1 -5.3582 -20.5906 -13.7646
428 5 1 -5.54571 -20.5896 -14.7106
429 5 1 -5.55876 -20.5478 -15.5786
430 5 1 -5.40772 -20.4343 -16.4716
431 5 1 -5.26466 -20.4002 -17.3886
432 5 1 -5.11194 -20.2905 -18.2716
433 5 1 -5.25251 -20.2523 -19.2566
434 5 1 -5.40281 -20.0064 -20.2216
435 5 1 -5.36205 -19.9563 -21.1266
436 5 1 -5.69912 -19.6905 -22.0736
437 5 1 -6.03849 -19.2247 -22.7566
438 5 1 -6.30822 -18.8911 -23.6166
439 5 1 -6.53993 -18.5669 -24.4756
440 5 1 -6.76659 -18.6296 24.3346
441 5 1 -6.74634 -18.5777 23.4266
442 5 1 -6.93191 -18.1449 22.5906
443 5 1 -6.82003 -17.8464 21.6776
444 5 1 -7.01339 -17.9596 20.7646
445 5 1 -7.27356 -18.0131 19.8366
446 5 1 -7.27902 -17.8822 18.7466
447 5 1 -7.44655 -17.6978 17.8336
448 5 1 -7.78453 -17.2985 17.0186
449 5 1 -8.12676 -17.2206 16.0856
450 5 1 -8.24316 -17.2573 15.0836
451 5 1 -8.27296 -16.905 14.0186
452 5 1 -8.35447 -16.5673 13.1736
453 5 1 -8.77803 -16.4624 12.3306
454 5 1 -8.87553 -16.2787 11.3426
455 5 1 -8.70639 -16.4676 10.4036
456 5 1 -8.7617 -16.7998 9.52359999999999
457 5 1 -8.83818 -16.8999 8.56859999999998
458 5 1 -8.83219 -17.0602 7.61359999999999
459 5 1 -9.26862 -17.4009 6.82559999999998
460 5 1 -9.15538 -17.5956 5.83659999999998
461 5 1 -8.94023 -17.7129 4.93159999999997
462 5 1 -9.19212 -17.7324 3.9716
463 5 1 -9.26492 -17.6288 3.04459999999997
464 5 1 -9.40877 -17.5842 2.17759999999998
465 5 1 -9.24716 -17.4642 1.30659999999997
466 5 1 -9.30794 -17.6729 0.406599999999997
467 5 1 -9.4229 -17.7323 -0.534400000000005
468 5 1 -9.28635 -17.6443 -1.49140000000003
469 5 1 -9.39875 -17.8043 -2.42840000000001
470 5 1 -9.49857 -17.8982 -3.40140000000002
471 5 1 -9.27188 -17.8289 -4.37640000000002
472 5 1 -9.00382 -17.7329 -5.2304
473 5 1 -9.03618 -17.5601 -6.24040000000002
474 5 1 -9.31431 -17.5998 -7.2594
475 5 1 -9.86232 -17.4778 -8.09740000000002
476 5 1 -10.063 -17.3289 -9.06740000000002
477 5 1 -10.1323 -17.5589 -9.96140000000003
478 5 1 -9.89436 -17.7735 -10.8454
479 5 1 -9.79671 -17.9679 -11.9004
480 5 1 -9.68756 -17.654 -12.8554
481 5 1 -9.58245 -17.2208 -13.6994
482 5 1 -9.24789 -16.7388 -14.5174
483 5 1 -9.40246 -16.4641 -15.4764
484 5 1 -9.42643 -16.203 -16.4574
485 5 1 -9.50456 -16.187 -17.4984
486 5 1 -9.1207 -16.1096 -18.2984
487 5 1 -8.89253 -16.0748 -19.2574
488 5 1 -9.03955 -16.0071 -20.2124
489 5 1 -9.00072 -15.7778 -21.1864
490 5 1 -8.59057 -15.3945 -22.0084
491 5 1 -8.26244 -15.4794 -22.9764
492 5 1 -8.19929 -15.7007 -23.8684
493 5 1 -8.44528 -15.8916 -24.7684
494 5 1 -8.73931 -15.9087 24.0108
495 5 1 -8.89266 -16.0252 23.0978
496 5 1 -9.18108 -16.0905 22.2408
497 5 1 -9.61581 -16.09 21.3488
498 5 1 -9.847 -15.7994 20.3668
499 5 1 -10.021 -15.7619 19.3958
500 5 2 -10.7931 -15.7261 18.7588
501 6 2 -8.92419 -13.7532 -11.4636
502 6 1 -8.23617 -14.0904 -12.0556
503 6 1 -7.67053 -13.8247 -12.8216
504 6 1 -7.2787 -13.779 -13.7346
505 6 1 -7.09611 -13.5851 -14.6026
506 6 1 -6.73528 -13.619 -15.4716
507 6 1 -6.83751 -13.4864 -16.5046
508 6 1 -6.87988 -13.7118 -17.4676
509 6 1 -6.96819 -13.9449 -18.4296
510 6 1 -6.8217 -13.9121 -19.4406
511 6 1 -6.50529 -14.1888 -20.2786
512 6 1 -6.44164 -14.3039 -21.1656
513 6 1 -6.72049 -14.5314 -22.0986
514 6 1 -6.93125 -14.4773 -23.0886
515 6 1 -6.87809 -14.3331 -24.0136
516 6 1 -7.00723 -14.3392 24.7796
517 6 1 -7.21197 -14.4613 23.8766
518 6 1 -7.17131 -14.4274 22.9406
519 6 1 -6.98075 -14.6607 21.9916
520 6 1 -7.09008 -14.6704 20.9226
521 6 1 -7.47566 -14.7286 20.1526
522 6 1 -7.58676 -14.8615 19.2726
523 6 1 -7.72338 -14.9854 18.3016
524 6 1 -7.8049 -15.1062 17.3616
525 6 1 -7.97104 -15.212 16.3256
526 6 1 -7.94665 -15.0565 15.3776
527 6 1 -7.92764 -15.2826 14.4186
528 6 1 -7.9407 -15.5197 13.4866
529 6 1 -7.97019 -15.6546 12.5726
530 6 1 -7.95235 -15.3863 11.6686
531 6 1 -7.57991 -15.2874 10.7836
532 6 1 -7.71398 -15.3339 9.7786
533 6 1 -7.98497 -15.2488 8.8356
534 6 1 -8.04183 -15.0539 7.84660000000001
535 6 1 -7.89923 -14.977 6.9526
536 6 1 -7.97169 -15.0442 5.9276
537 6 1 -8.15382 -15.0255 5.0056
538 6 1 -8.19379 -15.0954 4.08160000000001
539 6 1 -8.26694 -14.8716 3.19160000000001
540 6 1 -8.26533 -14.6856 2.2876
541 6 1 -8.54929 -14.6491 1.38460000000001
542 6 1 -8.60492 -14.9967 0.524900000000002
543 6 1 -8.87011 -15.03 -0.422399999999996
544 6 1 -8.95711 -15.3309 -1.3802
545 6 1 -9.16232 -14.9351 -2.24039999999999
546 6 1 -9.16397 -14.9426 -3.29519999999999
547 6 1 -9.63556 -14.8012 -4.2383
548 6 1 -9.92844 -14.8003 -5.16459999999999
549 6 1 -10.0588 -14.6998 -6.15309999999999
550 6 1 -10.1321 -14.8108 -7.1056
551 6 1 -9.97528 -14.9058 -8.0707
552 6 1 -9.9109 -15.296 -8.95829999999999
553 6 1 -9.68785 -15.2173 -9.84599999999999
554 6 1 -9.64682 -15.2841 -10.7641
555 6 1 -10.0489 -15.4418 -11.6044
556 6 1 -10.3014 -15.3335 -12.586
557 6 1 -10.1788 -15.1995 -13.5053
558 6 1 -9.99341 -15.2126 -14.403
559 6 1 -10.132 -15.2106 -15.4089
560 6 1 -10.2572 -15.4571 -16.3145
561 6 1 -10.3705 -15.4977 -17.2111
562 6 1 -10.2271 -15.8086 -18.1271
563 6 1 -10.1152 -16.1363 -19.1069
564 6 1 -10.2012 -16.2206 -20.1528
565 6 1 -10.2761 -16.3903 -21.0946
566 6 1 -10.1955 -16.6568 -21.9552
567 6 1 -10.2699 -16.7736 -22.9512
568 6 1 -10.3595 -17.0464 -23.8125
569 6 1 -10.1766 -17.0151 -24.6897
570 6 1 -10.0936 -17.3525 24.0969
571 6 1 -10.2328 -17.6398 23.147
572 6 1 -9.97484 -17.8553 22.2083
573 6 1 -9.9238 -17.9399 21.2059
574 6 1 -10.093 -17.9628 20.3129
575 6 1 -10.3414 -17.9585 19.3144
576 6 1 -10.7875 -18.0503 18.4368
577 6 1 -10.7196 -18.0968 17.4992
578 6 1 -10.8123 -18.1304 16.5696
579 6 1 -10.9531 -17.9908 15.4779
580 6 1 -10.9268 -17.91 14.4682
581 6 1 -10.7772 -18.057 13.5615
582 6 1 -11.0518 -17.8672 12.6637
583 6 1 -11.3407 -17.8494 11.6722
584 6 1 -11.955 -17.6799 10.8743
585 6 1 -12.305 -17.4769 9.9878
586 6 1 -12.5739 -17.3931 9.0864
587 6 1 -12.83 -17.3504 8.2017
588 6 1 -12.8361 -17.2838 7.2215
589 6 1 -12.7591 -17.4324 6.3109
590 6 1 -12.9446 -17.4375 5.3668
591 6 1 -13.3694 -17.2604 4.4884
592 6 1 -13.7533 -16.9657 3.67760000000001
593 6 1 -14.1074 -16.949 2.811
594 6 1 -14.1319 -16.8344 1.9078
595 6 1 -14.1373 -17.1281 0.9694
596 6 1 -14.0889 -17.1797 0.0211000000000041
597 6 1 -14.0004 -17.3089 -0.9803
598 6 1 -13.9656 -17.2084 -1.9713
599 6 1 -14.0272 -17.1046 -2.93369999999999
600 6 2 -14.3407 -16.9223 -3.7795
601 7 2 -6.88075 16.242 -1.63808
602 7 1 -6.70404 16.5245 -0.839122
603 7 1 -6.59762 16.3104 0.147236
604 7 1 -6.6194 15.8974 1.06493
605 7 1 -7.0242 15.9181 2.00576
606 7 1 -7.14839 15.8879 2.91728
607 7 1 -7.51951 15.5988 3.77453
608 7 1 -7.56107 15.3577 4.76386
609 7 1 -7.24628 15.1468 5.6955
610 7 1 -6.91445 15.0855 6.60961
611 7 1 -6.71962 15.3223 7.44021
612 7 1 -6.84275 15.51 8.35484
613 7 1 -6.75143 15.6318 9.24955
614 7 1 -6.85256 15.6101 10.14
615 7 1 -6.94012 15.6174 11.0538
616 7 1 -6.75844 15.802 12.0533
617 7 1 -6.50941 15.9774 13.0156
618 7 1 -6.64296 16.2538 13.9813
619 7 1 -6.30207 16.435 14.8562
620 7 1 -6.22513 16.7136 15.7402
621 7 1 -6.47252 17.112 16.6565
622 7 1 -6.57101 17.5374 17.5212
623 7 1 -6.27767 17.9605 18.3081
624 7 1 -6.01234 18.167 19.1902
625 7 1 -5.82071 18.5808 20.0236
626 7 1 -5.93514 18.5425 20.9837
627 7 1 -5.86813 18.7443 22.1313
628 7 1 -5.67142 18.797 23.0488
629 7 1 -5.65283 18.6077 23.9525
630 7 1 -5.2664 18.6582 -24.7925
631 7 1 -5.1389 18.6109 -23.8218
632 7 1 -4.84218 18.9738 -22.9768
633 7 1 -4.52367 19.3114 -22.1345
634 7 1 -4.43852 19.3614 -21.2214
635 7 1 -4.18295 19.3493 -20.2034
636 7 1 -3.75564 19.6866 -19.373
637 7 1 -3.28527 19.6186 -18.4986
638 7 1 -2.99259 19.5636 -17.5453
639 7 1 -2.77079 19.3594 -16.5742
640 7 1 -2.77645 19.3903 -15.6532
641 7 1 -2.63276 19.4622 -14.7773
642 7 1 -2.3111 19.6151 -13.9213
643 7 1 -2.43032 19.5857 -12.8604
644 7 1 -2.29051 19.3221 -11.915
645 7 1 -2.04816 19.1083 -10.9727
646 7 1 -1.63553 18.9713 -10.0438
647 7 1 -1.67079 18.7616 -9.1134
648 7 1 -1.71257 18.5977 -8.1425
649 7 1 -1.76709 18.2982 -7.283
650 7 1 -1.80367 18.3476 -6.3052
651 7 1 -1.50583 18.2597 -5.436
652 7 1 -1.36445 18.3599 -4.4511
653 7 1 -0.899336 18.2873 -3.67449999999999
654 7 1 -0.335948 18.1136 -2.9003
655 7 1 0.0884681 17.9027 -2.0567
656 7 1 0.286185 17.7524 -1.1154
657 7 1 0.486406 17.5862 -0.157899999999998
658 7 1 0.699384 17.3034 0.743100000000005
659 7 1 0.724167 17.1237 1.7567
660 7 1 1.00301 16.8968 2.5918
661 7 1 0.950845 16.7413 3.5046
662 7 1 1.01679 16.9483 4.4953
663 7 1 1.18491 17.2622 5.4575
664 7 1 1.23791 17.4898 6.4885
665 7 1 1.44631 17.7828 7.3409
666 7 1 1.52706 18.1179 8.23860000000001
667 7 1 1.56008 18.1515 9.2105
668 7 1 1.8664 17.9604 10.195
669 7 1 2.04708 18.0288 11.0995
670 7 1 2.26947 17.6791 11.967
671 7 1 2.40741 17.4708 12.8742
672 7 1 2.75549 17.5439 13.8217
673 7 1 3.04156 17.4942 14.776
674 7 1 3.3092 17.6179 15.7181
675 7 1 3.19554 17.4239 16.7077
676 7 1 3.32283 17.192 17.5908
677 7 1 3.4431 16.993 18.5411
678 7 1 3.56807 16.9363 19.5232
679 7 1 3.76209 16.9274 20.5157
680 7 1 3.58223 17.053 21.468
681 7 1 3.5086 17.0756 22.415
682 7 1 3.69581 16.9369 23.3256
683 7 1 3.39665 17.0823 24.1726
684 7 1 3.11248 16.9828 -24.57
685 7 1 3.05516 17.2582 -23.667
686 7 1 3.00392 17.6491 -22.7113
687 7 1 3.15392 17.8716 -21.7571
688 7 1 3.01016 17.6992 -20.816
689 7 1 2.94603 17.5487 -19.8457
690 7 1 2.93532 17.4049 -18.8557
691 7 1 2.86463 17.225 -17.8588
692 7 1 2.47631 17.1936 -16.96
693 7 1 2.6124 16.9169 -16.0801
694 7 1 2.88834 16.5361 -15.2544
695 7 1 2.67741 16.3278 -14.4018
696 7 1 2.73504 16.188 -13.4619
697 7 1 2.81476 15.9546 -12.4406
698 7 1 2.95561 15.8232 -11.4948
699 7 1 2.98265 15.4281 -10.6116
700 7 2 2.74217 15.3415 -9.68719999999999
701 8 2 22.3918 22.8559 20.6653
702 8 1 22.3371 23.0152 21.563
703 8 1 22.3872 23.4216 22.5809
704 8 1 22.3781 23.5833 23.5879
705 8 1 22.2406 24.0382 24.4681
706 8 1 22.1594 24.1854 -24.2703
707 8 1 22.2419 24.3957 -23.3524
708 8 1 22.1168 24.6436 -22.4897
709 8 1 22.2373 24.726 -21.5121
710 8 1 21.9575 -24.7621 -20.5673
711 8 1 21.7631 -24.4553 -19.6649
712 8 1 21.5039 -24.2221 -18.8131
713 8 1 21.5793 -24.2876 -17.945
714 8 1 21.552 -24.2457 -17.0562
715 8 1 21.9229 -24.513 -16.1578
716 8 1 22.0043 -24.5746 -15.2109
717 8 1 21.9499 -24.0244 -14.4623
718 8 1 21.7955 -23.6433 -13.6275
719 8 1 21.6432 -23.5748 -12.6438
720 8 1 21.3076 -23.5055 -11.8295
721 8 1 21.406 -23.2374 -10.9299
722 8 1 21.5873 -22.9653 -10.0893
723 8 1 21.9056 -23.3076 -9.3218
724 8 1 22.2494 -23.528 -8.413
725 8 1 22.422 -23.6761 -7.5147
726 8 1 22.2715 -23.678 -6.6058
727 8 1 22.2524 -23.5946 -5.6885
728 8 1 22.2138 -23.6294 -4.71259999999999
729 8 1 22.0677 -23.5292 -3.7534
730 8 1 21.8159 -23.481 -2.8264
731 8 1 21.5862 -23.6746 -1.9242
732 8 1 21.4003 -23.7017 -0.9754
733 8 1 21.69 -23.7101 -0.027000000000001
734 8 1 21.6057 -23.7302 0.946400000000004
735 8 1 21.6298 -23.8244 1.8817
736 8 1 21.6897 -23.9066 2.85590000000001
737 8 1 21.7163 -23.9817 3.7774
738 8 1 21.5875 -23.8183 4.6899
739 8 1 21.5849 -23.6714 5.7338
740 8 1 21.3255 -23.5453 6.6349
741 8 1 21.2901 -23.5888 7.5271
742 8 1 21.1336 -23.6425 8.5001
743 8 1 20.9598 -23.8159 9.39870000000001
744 8 1 20.7752 -23.925 10.3629
745 8 1 20.8304 -23.8561 11.4246
746 8 1 20.8522 -23.8109 12.4044
747 8 1 20.9145 -23.742 13.3483
748 8 1 20.5563 -23.7698 14.3626
749 8 1 20.3362 -23.757 15.272
750 8 1 20.2501 -23.4164 16.159
751 8 1 20.4053 -23.2738 17.0482
752 8 1 20.4454 -23.3541 18.0633
753 8 1 20.2377 -23.638 18.9415
754 8 1 20.0641 -23.5207 19.9177
755 8 1 20.0037 -23.3382 20.8738
756 8 1 19.9169 -23.2449 21.7991
757 8 1 19.9249 -23.3146 22.7506
758 8 1 20.1147 -23.1202 23.6766
759 8 1 20.1341 -22.7873 24.55
760 8 1 19.8858 -22.3879 -24.3459
761 8 1 19.4453 -22.2569 -23.5015
762 8 1 19.189 -22.1269 -22.5826
763 8 1 19.0254 -22.1861 -21.62
764 8 1 19.1382 -21.6542 -20.8497
765 8 1 18.8004 -21.2439 -20.0518
766 8 1 18.4812 -20.8168 -19.177
767 8 1 18.3273 -20.8934 -18.2075
768 8 1 18.3754 -20.6907 -17.2559
769 8 1 18.3133 -20.7149 -16.3694
770 8 1 18.3571 -20.9193 -15.3856
771 8 1 18.4118 -20.9276 -14.3441
772 8 1 18.8009 -20.7889 -13.363
773 8 1 18.878 -20.6967 -12.3944
774 8 1 18.7199 -20.2478 -11.5376
775 8 1 18.6568 -19.8578 -10.6295
776 8 1 18.6379 -19.8481 -9.66289999999999
777 8 1 18.7841 -19.8875 -8.7411
778 8 1 18.9737 -19.8182 -7.67749999999999
779 8 1 19.1156 -19.7057 -6.66419999999999
780 8 1 19.2581 -19.6835 -5.72109999999999
781 8 1 19.5687 -19.4587 -4.83659999999999
782 8 1 19.7216 -19.7474 -3.92179999999999
783 8 1 19.868 -19.8863 -2.9344
784 8 1 20.114 -19.8885 -1.9914
785 8 1 20.3276 -20.1141 -1.13
786 8 1 20.3729 -19.9891 -0.149699999999996
787 8 1 20.3972 -19.9835 0.802599999999998
788 8 1 20.2511 -19.9014 1.76360000000001
789 8 1 19.9865 -19.903 2.7116
790 8 1 20.179 -19.8706 3.64960000000001
791 8 1 20.319 -19.6405 4.62660000000001
792 8 1 20.2641 -19.5 5.5656
793 8 1 20.4104 -19.4144 6.5206
794 8 1 20.3501 -19.4545 7.5146
795 8 1 20.4144 -19.4741 8.49160000000001
796 8 1 20.5505 -19.5854 9.44460000000001
797 8 1 20.6231 -19.5088 10.4096
798 8 1 20.3655 -19.4991 11.2946
799 8 1 20.2599 -19.6852 12.2246
800 8 2 20.0255 -19.7207 13.2116
801 9 2 -22.8467 -7.00458 10.4399
802 9 1 -22.7315 -7.24804 9.5322
803 9 1 -22.5308 -7.65625 8.6247
804 9 1 -22.6138 -8.11328 7.7978
805 9 1 -22.5885 -8.71011 6.9299
806 9 1 -22.7204 -8.80589 5.9407
807 9 1 -22.8032 -8.8756 4.9816
808 9 1 -22.9027 -9.1129 4.0375
809 9 1 -22.9527 -9.26248 3.1149
810 9 1 -23.0878 -9.40617 2.2141
811 9 1 -23.4879 -9.46854 1.3442
812 9 1 -23.6744 -9.48551 0.313000000000002
813 9 1 -23.9569 -9.41603 -0.614399999999996
814 9 1 -24.416 -9.32774 -1.3855
815 9 1 -24.7897 -9.22475 -2.31639999999999
816 9 1 -24.8375 -9.04263 -3.2214
817 9 1 -24.7545 -8.80314 -4.1611
818 9 1 -24.5613 -8.77815 -5.0818
819 9 1 -24.5254 -8.82447 -6.0237
820 9 1 -24.5003 -8.87448 -6.9342
821 9 1 -24.564 -9.10972 -7.84209999999999
822 9 1 -24.5822 -9.04722 -8.8738
823 9 1 -24.5267 -9.01129 -9.8362
824 9 1 -24.5902 -8.92065 -10.7788
825 9 1 -24.6715 -8.74129 -11.9449
826 9 1 24.7933 -8.58078 -12.8942
827 9 1 24.6166 -8.48492 -13.8634
828 9 1 24.5168 -8.55219 -14.8277
829 9 1 24.6509 -8.57342 -15.7757
830 9 1 24.4987 -8.70561 -16.7413
831 9 1 24.7338 -8.82651 -17.6677
832 9 1 -24.8523 -8.94814 -18.6231
833 9 1 -24.8303 -8.93562 -19.5967
834 9 1 -24.7818 -8.58568 -20.5057
835 9 1 24.7265 -8.16496 -21.318
836 9 1 24.5183 -7.95493 -22.2749
837 9 1 24.3815 -7.88214 -23.1483
838 9 1 24.1876 -7.69021 -24.0506
839 9 1 23.9077 -7.28617 24.8188
840 9 1 23.3815 -7.27757 24.0383
841 9 1 23.0267 -7.16156 23.2322
842 9 1 22.6889 -7.26387 22.3327
843 9 1 22.1732 -7.28466 21.4232
844 9 1 21.5135 -7.11062 20.8265
845 9 1 20.9475 -7.03589 20.0721
846 9 1 20.8813 -6.69537 19.2464
847 9 1 20.8452 -6.81998 18.3249
848 9 1 20.3271 -6.9088 17.5417
849 9 1 19.9993 -6.86126 16.686
850 9 1 19.5117 -7.17076 15.8329
851 9 1 19.1561 -7.16933 14.9854
852 9 1 18.955 -7.4183 14.0917
853 9 1 18.4202 -7.47916 13.1996
854 9 1 17.8693 -7.78133 12.4519
855 9 1 17.7543 -8.03489 11.5134
856 9 1 17.5576 -8.36091 10.615
857 9 1 17.3819 -8.45175 9.64949
858 9 1 17.407 -8.37823 8.69618
859 9 1 17.4062 -8.41124 7.71783